Basis is CC-PVDZ
Core-guess
 --invoking executable--
/home/thomas/Packages/cfour-v2.1/bin/xjoda


   *************************************************************************
         <<<     CCCCCC     CCCCCC   |||     CCCCCC     CCCCCC   >>>
       <<<      CCC        CCC       |||    CCC        CCC         >>>
      <<<      CCC        CCC        |||   CCC        CCC            >>>
    <<<        CCC        CCC        |||   CCC        CCC              >>>
      <<<      CCC        CCC        |||   CCC        CCC            >>>
       <<<      CCC        CCC       |||    CCC        CCC         >>>
         <<<     CCCCCC     CCCCCC   |||     CCCCCC     CCCCCC   >>>
   *************************************************************************

     ****************************************************************
     * CFOUR Coupled-Cluster techniques for Computational Chemistry *
     ****************************************************************


   Department of Chemistry                Institut fuer Physikalische Chemie
   University of Florida                  Universitaet Mainz
   Gainesville, FL 32611, USA             D-55099 Mainz, Germany

   Department of Chemistry                Department of Chemistry
   Johns Hopkins University               Southern Methodist University
   Baltimore, MD 21218, USA               Dallas, TX 75275, USA

   Institute of Nanotechnology            Department of Physical Chemistry
   Karlsruhe Inst. of Technology          Eotvos Lorand University
   D-76021 Karlsruhe, Germany             H-1053 Budapest, Hungary


                       Version 2.1

                     laptop21                                          
                     Thu 13 Jan 2022 09:14:18 AM CST                   
                     integer*8 version is running

********************************************************************************
*                          Input from ZMAT file                                *
********************************************************************************
H2O2 dimer in D2                                                                
O   2.0    0.75     0.0                                                         
O  -2.0    0.75     0.0                                                         
O   2.0   -0.75     0.0                                                         
O  -2.0   -0.75     0.0                                                         
H   2.0    0.75     0.97                                                        
H  -2.0    0.75    -0.97                                                        
H   2.0   -0.75    -0.97                                                        
H  -2.0   -0.75     0.97                                                        
                                                                                
*CFOUR(CALC=SCF                                                                 
COORDINATES=CARTESIAN                                                           
BASIS=SPECIAL,SPHERICAL=ON                                                      
REFERENCE=RHF                                                                   
MEM_SIZE=2,MEM_UNIT=GB)                                                         
                                                                                
O:P4_CC-PVDZ                                                                    
O:P4_CC-PVDZ                                                                    
O:P4_CC-PVDZ                                                                    
O:P4_CC-PVDZ                                                                    
H:P4_CC-PVDZ                                                                    
H:P4_CC-PVDZ                                                                    
H:P4_CC-PVDZ                                                                    
H:P4_CC-PVDZ                                                                    
                                                                                
********************************************************************************
    -------------------------------------------------------------------
                    CFOUR Control Parameters 
    -------------------------------------------------------------------
        External           Internal           Value            Units
          Name               Name
    -------------------------------------------------------------------
       ABCDTYPE             IABCDT         STANDARD    [  0]    ***   
       ANHARMONIC           IANHAR         OFF         [  0]    ***   
       ANH_ALGORIT          IANALG         STANDARD    [  0]    ***   
       ANH_DERIVAT          IANDER         SECOND      [  1]    ***   
       ANH_MODE             ANHMOD         VIBRATION   [  0]    ***   
       ANH_STEPSIZ          ICUBST             50000          x 10-6  
       ANH_SYMMETR          IANHSM         ABELIAN     [  0]    ***   
       AO_LADDERS           IAOLAD         SINGLEPASS  [  1]    ***   
       AV_SCF               IAVSCF         OFF         [  0]    ***   
       BASIS                IBASIS         SPECIAL     [  0]    ***   
       BOTHVECTORS          BOTHVC         OFF         [  0]    ***   
       BOX_POTENT           IPIAB          OFF         [  0]    ***   
       BREIT                IBREIT         OFF         [  0]    ***   
       BRUCK_CONV           IBRTOL          10D-  4             ***   
       BRUECKNER            IBRKNR         OFF         [  0]    ***   
       BUFFERSIZE           IBUFFS              4096            ***   
       CACHE_RECS           ICHREC             10               ***   
       CALCLEVEL            ICLLVL         SCF         [  0]    ***   
       CCORBOPT             ICCORB         OFF         [  0]  x 0.01  
       CC_CONV              ICCCNV          10D-  7             ***   
       CC_EXPORDER          ICCEOR              0               ***   
       CC_EXTRAPOL          ICCEXT         DIIS        [  1]    ***   
       CC_GUESS             ICCGES         MP2         [  0]    ***   
       CC_MAXCYC            ICCCYC              0              cycles 
       CC_PROGRAM           ICCPRO         VCC         [  0]    ***   
       CHARGE               ICHRGE              0               ***   
       CHOLESKY             ICHOLE         OFF         [  0]    ***   
       CIS_CONV             ICISTL              5               ***   
       COMM_SIZE            IPSIZE            ***               ***   
       CONSTANT             ICONST         OLD         [  1]    ***   
       CONTINUUM            ICONTU         NONE        [  0]    ***   
       CONTRACTION          ICNTYP         GENERAL     [  1]    ***   
       COORDINATES          ICOORD         CARTESIAN   [  1]    ***   
       CPHF_CONVER          ICPHFT          10D- 16             ***   
       CPHF_MAXCYC          ICPHFC             64              cycles 
       CUBIC                ICUBIC         OFF         [  0]    ***   
       CURVILINEAR          ICURVY         OFF         [  0]    ***   
       DBOC                 IDBOC          OFF         [  0]    ***   
       DCT                  IDCT           OFF         [  0]    ***   
       DERIV_LEV            IDRLVL         ZERO        [  0]    ***   
       DEVMEM_SIZE          IDVMEM         *********           MByte  
       DIAG_MRCC            IEOMST          10D-  0             ***   
       DIFF_TYPE            IDIFTY         RELAXED     [  0]    ***   
       DIRECT               IDIRCT         OFF         [  0]    ***   
       DROPMO               IDRPMO      NONE         
       ECP                  IECP           OFF         [  0]    ***   
       EIGENVECTOR          IVEC                1               ***   
       EL_ANHARM            IELANH         OFF         [  0]    ***   
       EOMFOLLOW            IEOMSR         ENERGY      [  0]    ***   
       EOMIP                IEOMIP         OFF         [  0]    ***   
       EOMLEVEL             HBARFM         SAME        [  0]    ***   
       EOM_MRCC             IMRCCE         NEW         [  1]    ***   
       EOM_NONIT            EOMNON         OFF         [  0]    ***   
       EOM_NSING            IEOMSI          10D-  0             ***   
       EOM_NSTATES          IMRCCD         DAVIDSON    [  0]    ***   
       EOM_NTRIP            IEOMTR          10D-  0             ***   
       EOM_ORDER            IEXORD         ENERGY      [  0]    ***   
       EOM_PROPSTA          IEOMST              0               ***   
       ESTATE_CONV          IEXTOL          10D-  5             ***   
       ESTATE_DIAG          IEXDIG         ITERATIVE   [  0]    ***   
       ESTATE_LOCK          IESLOC         ON          [  1]    ***   
       ESTATE_MAXC          IEXMXC             40               ***   
       ESTATE_PROP          IEXPRP         OFF         [  0]    ***   
       EVAL_HESS            IRECAL              0            # of cyc.
       EXCITATION           IEXCIT              0               ***   
       EXCITE               IEXCIT         NONE        [  0]    ***   
       EXTERN_POT           IEXPOT         OFF         [  0]    ***   
       FCGRADNEW            IFCGNW         OFF         [  0]    ***   
       FC_FIELD             IFINFC              0             x 10-6  
       FD_CALTYPE           IFDCAL         GRADONLY    [  0]    ***   
       FD_PROJECT           IFDPRJ         OFF         [  1]    ***   
       FD_STEPSIZE          IDISFD              0            10-4 bohr
       FD_USEGROUP          IFDGRP         FULL        [  0]    ***   
       FILE_RECSIZ          IFLREC              4096           words  
       FINITE_PERT          IFIPER              0             x 10-6  
       FIXGEOM              IFIXGM         OFF         [  0]    ***   
       FOCK                 IFOCK          AO          [  1]    ***   
       FREQ_ALGORI          IVIALG         STANDARD    [  0]    ***   
       FROZEN_CORE          IFROCO         OFF         [  0]    ***   
       GAMMA_ABCD           IGABCD         STORE       [  0]    ***   
       GAMMA_ABCI           IGABCI         STORE       [  0]    ***   
       GENBAS_1             IGNBS1              0               ***   
       GENBAS_2             IGNBS2              0               ***   
       GENBAS_3             IGNBS3              0               ***   
       GENBAS_4             IGNBS4              0               ***   
       GEO_CONV             ICONTL              5              H/bohr 
       GEO_MAXCYC           IOPTCY             50               ***   
       GEO_MAXSTEP          IMXSTP            300            millibohr
       GEO_METHOD           INR            SINGLE_POINT[  5]    ***   
       GIAO                 IGIAO          OFF         [  1]    ***   
       GIMIC                IGIMIC         OFF         [  0]    ***   
       GRID                 IGRID          OFF         [  0]    ***   
       GRID_ALGO            IGALGO         SERIAL      [  0]    ***   
       GUESS                IGUESS         MOREAD      [  0]    ***   
       HBAR                 IHBAR          OFF         [  0]    ***   
       HESS_TYPE            IHESTP         SCF         [  0]    ***   
       HF2_FILE             IHF2Fl         USE         [  1]    ***   
       HFSTABILITY          ISTABL         OFF         [  0]    ***   
       INCORE               INCORE         OFF         [  0]    ***   
       INPUT_MRCC           IMRCC          ON          [  1]    ***   
       INTEGRALS            INTTYP         VMOL        [  1]    ***   
       JODA_PRINT           IJPRNT              0               ***   
       KEYWORD_OUT          IDMPKW         NO          [  0]    ***   
       LINDEP_TOL           ILINDP              8               ***   
       LINEQ_CONV           IZTACN          10D-  7           cycles  
       LINEQ_EXPOR          ILMAXD              5               ***   
       LINEQ_MAXCY          ILMAXC            100               ***   
       LINEQ_TYPE           ILTYPE         DIIS        [  1]    ***   
       LOCK_ORBOCC          ILOCOC         OFF         [  0]    ***   
       MEMORY_SIZE          IMEMSZ         250000000           words  
       MEM_UNIT             IMEMU          GB          [  3]    ***   
       MRCC                 IMRCCC         OFF         [  0]    ***   
       MULTIPLICTY          IMULTP              1               ***   
       NACOUPLING           IVCOUP         OFF         [  0]    ***   
       NEGEVAL              IDIE           ABORT       [  0]    ***   
       NEWNORM              INEWNO         OFF         [  0]    ***   
       NON-HF               INONHF         OFF         [  0]    ***   
       NTOP_TAMP            ITOPT2             15               ***   
       NUC_MODEL            INUCMO         POINT       [  0]    ***   
       OCCUPATION           IOCCU   ESTIMATED BY SCF 
       OPEN-SHELL           IOPEN          SPIN-ORBITAL[  0]    ***   
       OPTVIB               IOPTVB         OFF         [  0]    ***   
       ORBITALS             IORBTP         STANDARD    [  0]    ***   
       PARALLEL             IPARAL         ON          [  1]    ***   
       PARA_INT             IPINTS         ON          [  1]    ***   
       PARA_PRINT           IPPRIN              0               ***   
       PERT_ORB             IPTORB         STANDARD    [  0]    ***   
       POINTS               IGRDFD              0               ***   
       PRINT                IPRNT               0               ***   
       PROPS                IPROPS         OFF         [  0]    ***   
       PROP_INTEGR          IINTYP         INTERNAL    [  0]    ***   
       PSI                  IPSI           OFF         [  0]    ***   
       QC_ALG               IQCALG         FLM         [  0]    ***   
       QC_LINALG            IQCLIN         TRIDIAG     [  2]    ***   
       QC_MAXCYC            IQCMAX          10D-100           cycles  
       QC_MAXSCFCY          IQCMSC          10D- 15           cycles  
       QC_RTRUST            IQCRTR          10D-  0           x 10-3  
       QC_SKIPSCF           IQCSKI         OFF         [  0]    ***   
       QC_START             IQCSTA          10D-  1             ***   
       QRHFGUESS            IQGUES         OFF         [  0]    ***   
       QUARTIC              IQUART         OFF         [  0]    ***   
       RAMAN_INT            IRAMIN         OFF         [  0]    ***   
       RAMAN_ORB            IRAMRE         UNRELAXED   [  0]    ***   
       RDO                  IRDOFM         OFF         [  0]    ***   
       REDUCE_REPR          REDREP         Ir          [  0]    ***   
       REFERENCE            IREFNC         RHF         [  0]    ***   
       RELATIVIST           IRELAT         OFF         [  0]    ***   
       RELAX_DENS           IRDENS         OFF         [  0]    ***   
       RESET_FLAGS          IRESET         OFF         [  0]    ***   
       RESTART_CC           ICCRES         OFF         [  0]    ***   
       ROT_EVEC             ROTVEC              0               ***   
       SAVE_INTS            ISVINT         OFF         [  0]    ***   
       SCALE_ON             ISTCRT              0               ***   
       SCF_CONV             ISCFCV          10D-  7             ***   
       SCF_DAMPING          IDAMP               0             x 10-3  
       SCF_EXPORDE          IRPPOR              6               ***   
       SCF_EXPSTAR          IRPPLS              8               ***   
       SCF_EXTRAPO          IRPP           ON          [  1]    ***   
       SCF_MAXCYC           ISCFCY            150              cycles 
       SCF_NOSTOP           ISCFST         OFF         [  0]    ***   
       SCF_PRINT            ISCFPR              0               ***   
       SCF_PROG             ISCFPR         SCF         [  0]    ***   
       SD_FIELD             IFINSD              0             x 10-6  
       SOPERT               IPERSO         OFF         [  0]    ***   
       SPHERICAL            IDFGHI         ON          [  1]    ***   
       SPINORBIT            ISOCAL         OFF         [  0]    ***   
       SPINROTATIO          ISRCON         OFF         [  0]    ***   
       SPIN_FLIP            ISPFLP         OFF         [  0]    ***   
       SPIN_ORBIT           ISPORB         OFF         [  0]    ***   
       SPIN_SCAL            ISCSMP         OFF         [  0]    ***   
       STEEPSCALE           ISTPSC              1000          x 10-3  
       SUBGROUP             ISUBGP         DEFAULT     [  0]    ***   
       SUBGRPAXIS           ISBXYZ         X           [  0]    ***   
       SYMMETRY             ISYM           ON          [  0]    ***   
       SYM_CHECK            ISYMCK         OVERRIDE    [  1]    ***   
       T3_EXTRAPOL          IT3EXT         OFF         [  0]    ***   
       T4_EXTRAPOL          IT4EXP         OFF         [  0]    ***   
       TAMP_SUM             IEVERY              0               ***   
       TESTSUITE            ITESTS         OFF         [  0]    ***   
       THERMOCH             ITHERM         OFF         [  0]    ***   
       TOL_CHOLESK          ITOLCH          10D-  4             ***   
       TRANGRAD             IRESRM         OFF         [  0]    ***   
       TRANS_INV            ITRAIN         USE         [  0]    ***   
       TREAT_PERT           ITREAT         SIMULTANEOUS[  0]    ***   
       TRIP_ALGORI          ITRALG         NORMAL      [  0]    ***   
       UIJ_THRESHO          IUIJTH              1               ***   
       UNITS                IUNITS         ANGSTROM    [  0]    ***   
       UNOS                 IUNOS          OFF         [  0]    ***   
       UPDATE_HESS          IHUPDT         ON          [  1]    ***   
       VIBPHASE             ISETPH         STANDARD    [  0]    ***   
       VIBRATION            IVIB           NO          [  0]    ***   
       VIB_ALGORIT          IGEALG         STANDARD    [  0]    ***   
       VNATORB              IVNORB         OFF         [  0]    ***   
       VTRAN                IVTRAN         FULL/PARTIAL[  0]    ***   
       XFIELD               IXEFLD              0             x 10-6  
       XFORM_TOL            IXFTOL          10D- 11             ***   
       YFIELD               IYEFLD              0             x 10-6  
       ZFIELD               IZEFLD              0             x 10-6  
       ZSCALE_EXP           IZEXPS         OFF         [  0]    ***   
    -------------------------------------------------------------------
  @GETXYZ-I,     8 atoms read from ZMAT.
   Rotational constants (in cm-1): 
          0.0543268821             0.0611144933             0.4009024103
   Rotational constants (in MHz): 
       1628.6791809134          1832.1666739032         12018.7535833013
********************************************************************************
   The full molecular point group is D2  .
   The largest Abelian subgroup of the full molecular point group is D2  .
   The computational point group is D2  .
********************************************************************************


 ----------------------------------------------------------------
         Coordinates used in calculation (QCOMP) 
 ----------------------------------------------------------------
 Z-matrix   Atomic            Coordinates (in bohr)
  Symbol    Number           X              Y              Z
 ----------------------------------------------------------------
     O         8         3.77945304     1.41729489     0.00000000
     O         8        -3.77945304     1.41729489     0.00000000
     O         8         3.77945304    -1.41729489     0.00000000
     O         8        -3.77945304    -1.41729489     0.00000000
     H         1         3.77945304     1.41729489     1.83303473
     H         1        -3.77945304     1.41729489    -1.83303473
     H         1         3.77945304    -1.41729489    -1.83303473
     H         1        -3.77945304    -1.41729489     1.83303473
 ----------------------------------------------------------------

   Interatomic distance matrix (Angstroms) 

                 O             O             O             O             H    
                [ 1]        [ 2]        [ 3]        [ 4]        [ 5]
  O    [ 1]     0.00000
  O    [ 2]     4.00000     0.00000
  O    [ 3]     1.50000     4.27200     0.00000
  O    [ 4]     4.27200     1.50000     4.00000     0.00000
  H    [ 5]     0.97000     4.11593     1.78631     4.38074     0.00000
  H    [ 6]     4.11593     0.97000     4.38074     1.78631     4.44563
  H    [ 7]     1.78631     4.38074     0.97000     4.11593     2.45226
  H    [ 8]     4.38074     1.78631     4.11593     0.97000     4.27200

                 H             H             H    
                [ 6]        [ 7]        [ 8]
  H    [ 6]     0.00000
  H    [ 7]     4.27200     0.00000
  H    [ 8]     2.45226     4.44563     0.00000
 rotcon2
   Rotational constants (in cm-1): 
          0.4009024103             0.0611144933             0.0543268821
   Rotational constants (in MHz): 
      12018.7535833013          1832.1666739032          1628.6791809134
  ECPDATA file not present.   Using default ECPDATA. 
  There are   76 basis functions.
 @GEOPT-W, Archive file not created for single-point calculation.
 @CHECKOUT-I, Total execution time (CPU/WALL):        0.23/       0.12 seconds.
--executable xjoda finished with status     0 in        0.13 seconds (walltime).
 --invoking executable--
/home/thomas/Packages/cfour-v2.1/bin/xvmol

Running with 2 threads/proc

 SERIAL VERSION OF MOLECULE STARTED
********************************************************************************
                    INPUT FROM MOL FILE
********************************************************************************
INTGRL        1    0    1    0    0    0    0    0    0                         
         *** CFOUR Program System (Release V0.1) ***                            
H2O2 dimer in D2                                                                
    2    2 XY XZ      0.10E-08              0    0                              
   9999.00      3.00                                                            
          8.00000000    1    3    1    1    1                                   
O #1   3.779453041335311   1.417294890500742   0.000000000000000                
    9    3                                                                      
   11720.000000000000        7.1000000000000002E-004  -1.6000000000000001E-004  
   1759.0000000000000        5.4700000000000000E-003  -1.2630000000000000E-003  
   400.80000000000001        2.7837000000000001E-002  -6.2670000000000000E-003  
   113.70000000000000       0.10480000000000000       -2.5715999999999999E-002  
   37.030000000000001       0.28306199999999998       -7.0924000000000001E-002  
   13.270000000000000       0.44871899999999998      -0.16541100000000000       
   5.0250000000000004       0.27095200000000003      -0.11695500000000000       
   1.0129999999999999        1.5458000000000000E-002  0.55736799999999997       
  0.30230000000000001        0.0000000000000000        0.0000000000000000       
    4    2                                                                      
   17.699999999999999        4.3018000000000001E-002   0.0000000000000000       
   3.8540000000000001       0.22891300000000001        0.0000000000000000       
   1.0460000000000000       0.50872799999999996        0.0000000000000000       
  0.27529999999999999        0.0000000000000000        1.0000000000000000       
    1    1                                                                      
   1.1850000000000001        1.0000000000000000                                 
          1.00000000    1    2    1    1                                        
H #2   3.779453041335311   1.417294890500742   1.833034725047626                
    4    2                                                                      
   13.010000000000000        1.9685000000000001E-002   0.0000000000000000       
   1.9620000000000000       0.13797699999999999        0.0000000000000000       
  0.44460000000000000       0.47814800000000002        0.0000000000000000       
  0.12200000000000000        0.0000000000000000        1.0000000000000000       
    1    1                                                                      
  0.72699999999999998        1.0000000000000000                                 
FINISH                                                                          

********************************************************************************
 ONE- AND TWO-ELECTRON INTEGRALS OVER SYMMETRY-ADAPTED AOS ARE CALCULATED.

  SPHERICAL HARMONICS ARE USED.
  
  INTEGRALS LESS THAN  0.10E-13 ARE NEGLECTED.

   BASIS FUNCTION NOT NORMALIZED: 
   CENTER (AS ORDERED IN MOL FILE):   1
   ANGULAR MOMENTUM TYPE          : S
   OFFSET WITHIN ANGULAR MOMENTUM :  2
   <CHI|CHI>                      :    1.9652713231
   BASIS FUNCTION NOT NORMALIZED: 
   CENTER (AS ORDERED IN MOL FILE):   1
   ANGULAR MOMENTUM TYPE          : P
   OFFSET WITHIN ANGULAR MOMENTUM :  1
   <CHI|CHI>                      :    1.4570451039
   BASIS FUNCTION NOT NORMALIZED: 
   CENTER (AS ORDERED IN MOL FILE):   2
   ANGULAR MOMENTUM TYPE          : S
   OFFSET WITHIN ANGULAR MOMENTUM :  1
   <CHI|CHI>                      :    1.7017387041
  NUCLEAR REPULSION ENERGY :  113.7797301307 A.U.
  @MOLECU-I, ONE ELECTRON INTEGRALS (CPU/WALL):        0.01/       0.00 SECONDS.
  @TWOEL-I,      62180 INTEGRALS OF SYMMETRY TYPE  I I I I
  @TWOEL-I,     336366 INTEGRALS OF SYMMETRY TYPE  I J I J
  @TWOEL-I,     185400 INTEGRALS OF SYMMETRY TYPE  I I J J
  @TWOEL-I,     335283 INTEGRALS OF SYMMETRY TYPE  I J K L
  @TWOEL-I, TOTAL NUMBER OF 2-E INTEGRALS     919229.
  @MOLECU-I, TWO ELECTRON INTEGRALS (CPU/WALL):        0.41/       0.31 SECONDS.
 @CHECKOUT-I, Total execution time (CPU/WALL):        0.42/       0.31 seconds.
--executable xvmol finished with status     0 in        0.31 seconds (walltime).
 --invoking executable--
/home/thomas/Packages/cfour-v2.1/bin/xvmol2ja
 @GETMEM-I,  Allocated    1907 MB of main memory.
 @CHECKOUT-I, Total execution time (CPU/WALL):        0.00/       0.00 seconds.
--executable xvmol2ja finished with status     0 in        0.00 seconds (walltime).
 --invoking executable--
/home/thomas/Packages/cfour-v2.1/bin/xvscf
  There are   76 functions in the AO basis.

  There are 4 irreducible representations.

       Irrep        # of functions
         1                 19
         2                 19
         3                 19
         4                 19


  Parameters for SCF calculation: 
        SCF reference function:  RHF  
  Maximum number of iterations:  150
     Full symmetry point group: D2  
     Computational point group: D2  
        Initial density matrix: MOREAD                 
     SCF convergence tolerance: 10**(- 7)
  DIIS convergence acceleration:  ON
          Latest start for DIIS:   8
                     DIIS order:   6

  Memory information:     250694 words required.
  Fock matrices are constructed from AO integral file.
 @GETMEM-I,  Allocated       1 MB of main memory.
  Initialization and symmetry analysis required      0.001 seconds.

  @INITGES-I, Occupancies from core Hamiltonian:

          Alpha population by irrep:   5    4    4    5
           Beta population by irrep:   5    4    4    5


 total no. of electrons in initial guess :   0.0000000000000000     
  --------------------------------------------------------------------
  Iteration         Total Energy            Largest Density Difference
  --------------------------------------------------------------------
       0           113.779730130701822              0.0000000000D+00
   current occupation vector 
     5  4  4  5
     5  4  4  5
       1          -279.088282078349039              0.6334809790D+00
   current occupation vector 
     5  4  4  5
     5  4  4  5
       2          -286.617496928021865              0.1761972245D+01
   current occupation vector 
     5  4  4  5
     5  4  4  5
       3          -296.777493733077677              0.1760085089D+01
   current occupation vector 
     5  4  4  5
     5  4  4  5
       4          -300.292026490335957              0.2640229626D+00
   current occupation vector 
     5  4  4  5
     5  4  4  5
       5          -301.268549994727323              0.1407793868D+00
   current occupation vector 
     5  4  4  5
     5  4  4  5
       6          -301.484261959528624              0.6079438868D-01
   current occupation vector 
     5  4  4  5
     5  4  4  5
       7          -301.532014612746252              0.3057339008D-01
   current occupation vector 
     5  4  4  5
     5  4  4  5
       8          -301.545271856319573              0.8981069439D-02
   current occupation vector 
     5  4  4  5
     5  4  4  5
       9          -301.545623966411370              0.4204700407D-02
   current occupation vector 
     5  4  4  5
     5  4  4  5
      10          -301.545652431945712              0.1402673020D-02
   current occupation vector 
     5  4  4  5
     5  4  4  5
      11          -301.545652766073374              0.1114489729D-03
   current occupation vector 
     5  4  4  5
     5  4  4  5
      12          -301.545652774691348              0.1223339045D-04
   current occupation vector 
     5  4  4  5
     5  4  4  5
      13          -301.545652775158487              0.2344559686D-05
   current occupation vector 
     5  4  4  5
     5  4  4  5
      14          -301.545652775171448              0.3057479402D-06
   current occupation vector 
     5  4  4  5
     5  4  4  5
      15          -301.545652775170709              0.1086356414D-06
   current occupation vector 
     5  4  4  5
     5  4  4  5

  SCF has converged.

 Density matrix saved to file den.dat
 total electron number:   36.000000000000092     
     E(SCF)=      -301.545652775173664              0.3013165386D-07

  Eigenvector printing suppressed.

 @PUTMOS-I, Writing converged MOs to NEWMOS. 
 @PUTMOS-I, Symmetry   1 Full Blocks  4 Partial Blocksize   3
 @PUTMOS-I, Symmetry   2 Full Blocks  4 Partial Blocksize   3
 @PUTMOS-I, Symmetry   3 Full Blocks  4 Partial Blocksize   3
 @PUTMOS-I, Symmetry   4 Full Blocks  4 Partial Blocksize   3
 @PUTFOCK-I, Writing converged Fock matrix to NEWFOCK. 
 @PUTFOCK-I, Symmetry   1 Full Blocks  4 Partial Blocksize   3
 @PUTFOCK-I, Symmetry   2 Full Blocks  4 Partial Blocksize   3
 @PUTFOCK-I, Symmetry   3 Full Blocks  4 Partial Blocksize   3
 @PUTFOCK-I, Symmetry   4 Full Blocks  4 Partial Blocksize   3



  ORBITAL EIGENVALUES (ALPHA)  (1H = 27.2113834 eV)

       MO #        E(hartree)               E(eV)           FULLSYM    COMPSYM
       ----   --------------------   --------------------   -------   ---------
    1    58         -20.6250402046        -561.2358766472                B3 (4)
    2     1         -20.6250401884        -561.2358762078                 A (1)
    3    39         -20.6247881826        -561.2290187814                B1 (3)
    4    20         -20.6247879831        -561.2290133515                B2 (2)
    5     2          -1.4547469137         -39.5856760175       A         A (1)
    6    59          -1.4546030889         -39.5817623476      B3        B3 (4)
    7    21          -1.2075078415         -32.8579588336      B2        B2 (2)
    8    40          -1.2073652008         -32.8540773834      B1        B1 (3)
    9    41          -0.7283224452         -19.8186612944      B1        B1 (3)
   10    22          -0.7279818594         -19.8093934852      B2        B2 (2)
   11    60          -0.6198651342         -16.8673878236      B3        B3 (4)
   12     3          -0.6198107013         -16.8659066294       A         A (1)
   13     4          -0.6125572919         -16.6685313239       A         A (1)
   14    61          -0.6090762045         -16.5738061215      B3        B3 (4)
   15     5          -0.5497602351         -14.9597365340       A         A (1)
   16    62          -0.5495685550         -14.9545206552      B3        B3 (4)
   17    23          -0.4583922315         -12.4734867587      B2        B2 (2)
   18    42          -0.4559964678         -12.4082947139      B1        B1 (3)
  +++++++++++++++++++++++++++++++++++++++++++++++++++++++++++++++++++++++++++++
   19     6           0.1738032121           4.7294258407       A         A (1)
   20    43           0.1944708625           5.2918212004      B1        B1 (3)
   21    24           0.1967996617           5.3551910477      B2        B2 (2)
   22    63           0.2042121712           5.5568956843      B3        B3 (4)
   23    44           0.2689730826           7.3191296741      B1        B1 (3)
   24    25           0.2759991316           7.5103181875      B2        B2 (2)
   25     7           0.7814992556          21.2656758715       A         A (1)
   26    64           0.8161052611          22.2073531554      B3        B3 (4)
   27    45           0.8284073897          22.5421110927      B1        B1 (3)
   28    26           0.8386146783          22.8198655366      B2        B2 (2)
   29     8           1.0974513834          29.8631703569       A         A (1)
   30    65           1.0982950262          29.8861270437      B3        B3 (4)
   31    27           1.1191079427          30.4524752945      B2        B2 (2)
   32    46           1.1198038017          30.4714105811      B1        B1 (3)
   33     9           1.1263229319          30.6488051328       A         A (1)
   34    66           1.1531370686          31.3784548863      B3        B3 (4)
   35    47           1.2320283653          33.5251962081      B1        B1 (3)
   36    28           1.2346410297          33.5962904198      B2        B2 (2)
   37    29           1.2520804240          34.0708404650      B2        B2 (2)
   38    48           1.2784057196          34.7871881781      B1        B1 (3)
   39    10           1.3709916992          37.3065807648       A         A (1)
   40    67           1.3780141569          37.4976715545      B3        B3 (4)
   41    30           1.4957873412          40.7024428275      B2        B2 (2)
   42    49           1.5004252241          40.8286460368      B1        B1 (3)
   43    31           1.5472812319          42.1036628285      B2        B2 (2)
   44    50           1.5509029531          42.2022148729      B1        B1 (3)
   45    11           1.5822323067          43.0547299254       A         A (1)
   46    68           1.5892190170          43.2448479791      B3        B3 (4)
   47    69           1.7372096165          47.2718769211      B3        B3 (4)
   48    12           1.7392114740          47.3263502314       A         A (1)
   49    70           1.9680319787          53.5528727171      B3        B3 (4)
   50    13           1.9718971302          53.6580488362       A         A (1)
   51    51           2.0683740514          56.2833193278      B1        B1 (3)
   52    32           2.0692824512          56.3080381416      B2        B2 (2)
   53    14           2.3842148632          64.8777847500       A         A (1)
   54    71           2.3893756942          65.0182181019      B3        B3 (4)
   55    52           2.4337284448          66.2251178040      B1        B1 (3)
   56    33           2.4380302346          66.3421754534      B2        B2 (2)
   57    15           2.6560086896          72.2736707665       A         A (1)
   58    72           2.6568204489          72.2957598601      B3        B3 (4)
   59    16           2.7170968779          73.9359648784       A         A (1)
   60    73           2.7172897843          73.9412141302      B3        B3 (4)
   61    34           3.1187981360          84.8668118266      B2        B2 (2)
   62    53           3.1190136751          84.8726769441      B1        B1 (3)
   63    35           3.2227365488          87.6951198275      B2        B2 (2)
   64    54           3.2228727559          87.6988262089      B1        B1 (3)
   65    17           3.2839424811          89.3606179158       A         A (1)
   66    74           3.2862393369          89.4231185411      B3        B3 (4)
   67    36           3.3345652654          90.7381339103      B2        B2 (2)
   68    55           3.3388853524          90.8556894519      B1        B1 (3)
   69    18           3.4507582700          93.8999063070       A         A (1)
   70    75           3.4517409051          93.9266451668      B3        B3 (4)
   71    37           3.8582621786         104.9886513993      B2        B2 (2)
   72    56           3.8615347144         105.0777016264      B1        B1 (3)
   73    19           3.9548256614         107.6162773522       A         A (1)
   74    76           3.9558285070         107.6435661677      B3        B3 (4)
   75    38           4.2093693843         114.5427641881      B2        B2 (2)
   76    57           4.2095417357         114.5474541072      B1        B1 (3)


  VSCF finished.

 @CHECKOUT-I, Total execution time (CPU/WALL):        0.15/       0.07 seconds.
--executable xvscf finished with status     0 in        0.08 seconds (walltime).
  The final electronic energy is      -301.545652775173664 a.u. 
  This computation required                            0.53 seconds (walltime).
