
Host: laptop21

Timers On : Thu Dec 23 14:45:45 2021
Timers Off: Thu Dec 23 14:49:48 2021

Wall Time:      242.52 seconds

                                                       Time (seconds)
Module                                       User      System        Wall        Calls

--------------------------------------------------------------------------------------

**************************************************************************************
