
Host: laptop21

Timers On : Thu Jan  6 15:08:50 2022
Timers Off: Thu Jan  6 17:11:55 2022

Wall Time:     7385.24 seconds

                                                       Time (seconds)
Module                                       User      System        Wall        Calls
Total PK formation time             :      0.150u      0.000s      0.095w      3 calls
HF: Form core H                     :      0.000u      0.000s      0.001w      3 calls
HF: Form S/X                        :      0.000u      0.000s      0.000w      3 calls
HF: Guess                           :      0.350u      0.000s      0.209w      3 calls
SAD Guess                           :      0.350u      0.000s      0.197w      3 calls
HF: Form G                          :      0.017u      0.000s      0.005w     34 calls
JK: D                               :      0.000u      0.000s      0.000w     34 calls
JK: USO2AO                          :      0.000u      0.000s      0.001w     34 calls
JK: JK                              :      0.000u      0.000s      0.003w     34 calls
PK computes JK                      :      0.000u      0.000s      0.003w     34 calls
JK: AO2USO                          :      0.000u      0.000s      0.000w     34 calls
HF: Form F                          :      0.000u      0.000s      0.000w     34 calls
HF: Form D                          :      0.000u      0.000s      0.000w     34 calls
HF: DIIS                            :      0.033u      0.000s      0.010w     31 calls
DIISManager::add_entry              :      0.000u      0.000s      0.001w     31 calls
DIISManager::extrapolate            :      0.000u      0.000s      0.002w     31 calls
bMatrix setup                       :      0.000u      0.000s      0.001w     31 calls
bMatrix pseudoinverse               :      0.000u      0.000s      0.000w     31 calls
New vector                          :      0.000u      0.000s      0.000w     31 calls
HF: Form C                          :      0.000u      0.000s      0.002w     31 calls

--------------------------------------------------------------------------------------
Total PK formation time             :      0.150u      0.000s      0.095w      3 calls
HF: Form core H                     :      0.000u      0.000s      0.001w      3 calls
HF: Form S/X                        :      0.000u      0.000s      0.000w      3 calls
HF: Guess                           :      0.350u      0.000s      0.209w      3 calls
| SAD Guess                         :      0.350u      0.000s      0.197w      3 calls
HF: Form G                          :      0.017u      0.000s      0.005w     34 calls
| JK: D                             :      0.000u      0.000s      0.000w     34 calls
| JK: USO2AO                        :      0.000u      0.000s      0.001w     34 calls
| JK: JK                            :      0.000u      0.000s      0.003w     34 calls
| | PK computes JK                  :      0.000u      0.000s      0.003w     34 calls
| JK: AO2USO                        :      0.000u      0.000s      0.000w     34 calls
HF: Form F                          :      0.000u      0.000s      0.000w     34 calls
HF: Form D                          :      0.000u      0.000s      0.000w     34 calls
HF: DIIS                            :      0.033u      0.000s      0.010w     31 calls
| DIISManager::add_entry            :      0.000u      0.000s      0.001w     31 calls
| DIISManager::extrapolate          :      0.000u      0.000s      0.002w     31 calls
| | bMatrix setup                   :      0.000u      0.000s      0.001w     31 calls
| | bMatrix pseudoinverse           :      0.000u      0.000s      0.000w     31 calls
| | New vector                      :      0.000u      0.000s      0.000w     31 calls
HF: Form C                          :      0.000u      0.000s      0.002w     31 calls

**************************************************************************************

Host: laptop21

Timers On : Mon Jan 10 14:14:19 2022
Timers Off: Mon Jan 10 14:18:34 2022

Wall Time:      254.45 seconds

                                                       Time (seconds)
Module                                       User      System        Wall        Calls
Total PK formation time             :      0.033u      0.000s      0.024w      1 calls
HF: Form core H                     :      0.000u      0.000s      0.001w      1 calls
HF: Form S/X                        :      0.000u      0.000s      0.000w      1 calls
HF: Guess                           :      0.117u      0.000s      0.069w      1 calls
SAD Guess                           :      0.117u      0.000s      0.066w      1 calls
HF: Form G                          :      0.000u      0.000s      0.001w     12 calls
JK: D                               :      0.000u      0.000s      0.000w     12 calls
JK: USO2AO                          :      0.000u      0.000s      0.000w     12 calls
JK: JK                              :      0.000u      0.000s      0.001w     12 calls
PK computes JK                      :      0.000u      0.000s      0.001w     12 calls
JK: AO2USO                          :      0.000u      0.000s      0.000w     12 calls
HF: Form F                          :      0.000u      0.000s      0.000w     12 calls
HF: Form D                          :      0.000u      0.000s      0.000w     12 calls
HF: DIIS                            :      0.017u      0.000s      0.003w     11 calls
DIISManager::add_entry              :      0.000u      0.000s      0.000w     11 calls
DIISManager::extrapolate            :      0.000u      0.000s      0.001w     11 calls
bMatrix setup                       :      0.000u      0.000s      0.000w     11 calls
bMatrix pseudoinverse               :      0.000u      0.000s      0.000w     11 calls
New vector                          :      0.000u      0.000s      0.000w     11 calls
HF: Form C                          :      0.000u      0.000s      0.001w     11 calls

--------------------------------------------------------------------------------------
Total PK formation time             :      0.033u      0.000s      0.024w      1 calls
HF: Form core H                     :      0.000u      0.000s      0.001w      1 calls
HF: Form S/X                        :      0.000u      0.000s      0.000w      1 calls
HF: Guess                           :      0.117u      0.000s      0.069w      1 calls
| SAD Guess                         :      0.117u      0.000s      0.066w      1 calls
HF: Form G                          :      0.000u      0.000s      0.001w     12 calls
| JK: D                             :      0.000u      0.000s      0.000w     12 calls
| JK: USO2AO                        :      0.000u      0.000s      0.000w     12 calls
| JK: JK                            :      0.000u      0.000s      0.001w     12 calls
| | PK computes JK                  :      0.000u      0.000s      0.001w     12 calls
| JK: AO2USO                        :      0.000u      0.000s      0.000w     12 calls
HF: Form F                          :      0.000u      0.000s      0.000w     12 calls
HF: Form D                          :      0.000u      0.000s      0.000w     12 calls
HF: DIIS                            :      0.017u      0.000s      0.003w     11 calls
| DIISManager::add_entry            :      0.000u      0.000s      0.000w     11 calls
| DIISManager::extrapolate          :      0.000u      0.000s      0.001w     11 calls
| | bMatrix setup                   :      0.000u      0.000s      0.000w     11 calls
| | bMatrix pseudoinverse           :      0.000u      0.000s      0.000w     11 calls
| | New vector                      :      0.000u      0.000s      0.000w     11 calls
HF: Form C                          :      0.000u      0.000s      0.001w     11 calls

**************************************************************************************

Host: laptop21

Timers On : Mon Jan 10 14:18:36 2022
Timers Off: Mon Jan 10 14:46:54 2022

Wall Time:     1698.19 seconds

                                                       Time (seconds)
Module                                       User      System        Wall        Calls
Total PK formation time             :      0.050u      0.000s      0.024w      1 calls
HF: Form core H                     :      0.000u      0.000s      0.001w      1 calls
HF: Form S/X                        :      0.000u      0.000s      0.000w      1 calls
HF: Guess                           :      0.100u      0.000s      0.069w      1 calls
SAD Guess                           :      0.100u      0.000s      0.065w      1 calls
HF: Form G                          :      0.000u      0.000s      0.001w     12 calls
JK: D                               :      0.000u      0.000s      0.000w     12 calls
JK: USO2AO                          :      0.000u      0.000s      0.000w     12 calls
JK: JK                              :      0.000u      0.000s      0.001w     12 calls
PK computes JK                      :      0.000u      0.000s      0.001w     12 calls
JK: AO2USO                          :      0.000u      0.000s      0.000w     12 calls
HF: Form F                          :      0.000u      0.000s      0.000w     12 calls
HF: Form D                          :      0.000u      0.000s      0.000w     12 calls
HF: DIIS                            :      0.017u      0.000s      0.003w     11 calls
DIISManager::add_entry              :      0.017u      0.000s      0.000w     11 calls
DIISManager::extrapolate            :      0.000u      0.000s      0.001w     11 calls
bMatrix setup                       :      0.000u      0.000s      0.000w     11 calls
bMatrix pseudoinverse               :      0.000u      0.000s      0.000w     11 calls
New vector                          :      0.000u      0.000s      0.000w     11 calls
HF: Form C                          :      0.000u      0.000s      0.001w     11 calls

--------------------------------------------------------------------------------------
Total PK formation time             :      0.050u      0.000s      0.024w      1 calls
HF: Form core H                     :      0.000u      0.000s      0.001w      1 calls
HF: Form S/X                        :      0.000u      0.000s      0.000w      1 calls
HF: Guess                           :      0.100u      0.000s      0.069w      1 calls
| SAD Guess                         :      0.100u      0.000s      0.065w      1 calls
HF: Form G                          :      0.000u      0.000s      0.001w     12 calls
| JK: D                             :      0.000u      0.000s      0.000w     12 calls
| JK: USO2AO                        :      0.000u      0.000s      0.000w     12 calls
| JK: JK                            :      0.000u      0.000s      0.001w     12 calls
| | PK computes JK                  :      0.000u      0.000s      0.001w     12 calls
| JK: AO2USO                        :      0.000u      0.000s      0.000w     12 calls
HF: Form F                          :      0.000u      0.000s      0.000w     12 calls
HF: Form D                          :      0.000u      0.000s      0.000w     12 calls
HF: DIIS                            :      0.017u      0.000s      0.003w     11 calls
| DIISManager::add_entry            :      0.017u      0.000s      0.000w     11 calls
| DIISManager::extrapolate          :      0.000u      0.000s      0.001w     11 calls
| | bMatrix setup                   :      0.000u      0.000s      0.000w     11 calls
| | bMatrix pseudoinverse           :      0.000u      0.000s      0.000w     11 calls
| | New vector                      :      0.000u      0.000s      0.000w     11 calls
HF: Form C                          :      0.000u      0.000s      0.001w     11 calls

**************************************************************************************
