
Host: laptop21

Timers On : Mon Jan 10 17:45:24 2022
Timers Off: Mon Jan 10 17:45:24 2022

Wall Time:        0.19 seconds

                                                       Time (seconds)
Module                                       User      System        Wall        Calls

--------------------------------------------------------------------------------------

**************************************************************************************

Host: laptop21

Timers On : Mon Jan 10 17:45:53 2022
Timers Off: Mon Jan 10 17:45:54 2022

Wall Time:        0.24 seconds

                                                       Time (seconds)
Module                                       User      System        Wall        Calls

--------------------------------------------------------------------------------------

**************************************************************************************

Host: laptop21

Timers On : Mon Jan 10 17:46:35 2022
Timers Off: Mon Jan 10 17:46:35 2022

Wall Time:        0.38 seconds

                                                       Time (seconds)
Module                                       User      System        Wall        Calls
Total PK formation time             :      0.017u      0.000s      0.011w      1 calls
HF: Form core H                     :      0.000u      0.000s      0.000w      1 calls
HF: Form S/X                        :      0.000u      0.000s      0.000w      1 calls
HF: Guess                           :      0.050u      0.000s      0.031w      1 calls
SAD Guess                           :      0.033u      0.000s      0.027w      1 calls
HF: Form G                          :      0.000u      0.000s      0.000w      6 calls
JK: D                               :      0.000u      0.000s      0.000w      6 calls
JK: USO2AO                          :      0.000u      0.000s      0.000w      6 calls
JK: JK                              :      0.000u      0.000s      0.000w      6 calls
PK computes JK                      :      0.000u      0.000s      0.000w      6 calls
JK: AO2USO                          :      0.000u      0.000s      0.000w      6 calls
HF: Form F                          :      0.000u      0.000s      0.000w      6 calls
HF: Form D                          :      0.000u      0.000s      0.000w      6 calls
HF: DIIS                            :      0.000u      0.000s      0.001w      5 calls
DIISManager::add_entry              :      0.000u      0.000s      0.000w      5 calls
DIISManager::extrapolate            :      0.000u      0.000s      0.000w      5 calls
bMatrix setup                       :      0.000u      0.000s      0.000w      5 calls
bMatrix pseudoinverse               :      0.000u      0.000s      0.000w      5 calls
New vector                          :      0.000u      0.000s      0.000w      5 calls
HF: Form C                          :      0.000u      0.000s      0.000w      5 calls

--------------------------------------------------------------------------------------
Total PK formation time             :      0.017u      0.000s      0.011w      1 calls
HF: Form core H                     :      0.000u      0.000s      0.000w      1 calls
HF: Form S/X                        :      0.000u      0.000s      0.000w      1 calls
HF: Guess                           :      0.050u      0.000s      0.031w      1 calls
| SAD Guess                         :      0.033u      0.000s      0.027w      1 calls
HF: Form G                          :      0.000u      0.000s      0.000w      6 calls
| JK: D                             :      0.000u      0.000s      0.000w      6 calls
| JK: USO2AO                        :      0.000u      0.000s      0.000w      6 calls
| JK: JK                            :      0.000u      0.000s      0.000w      6 calls
| | PK computes JK                  :      0.000u      0.000s      0.000w      6 calls
| JK: AO2USO                        :      0.000u      0.000s      0.000w      6 calls
HF: Form F                          :      0.000u      0.000s      0.000w      6 calls
HF: Form D                          :      0.000u      0.000s      0.000w      6 calls
HF: DIIS                            :      0.000u      0.000s      0.001w      5 calls
| DIISManager::add_entry            :      0.000u      0.000s      0.000w      5 calls
| DIISManager::extrapolate          :      0.000u      0.000s      0.000w      5 calls
| | bMatrix setup                   :      0.000u      0.000s      0.000w      5 calls
| | bMatrix pseudoinverse           :      0.000u      0.000s      0.000w      5 calls
| | New vector                      :      0.000u      0.000s      0.000w      5 calls
HF: Form C                          :      0.000u      0.000s      0.000w      5 calls

**************************************************************************************

Host: laptop21

Timers On : Wed Jan 12 15:58:52 2022
Timers Off: Wed Jan 12 16:00:34 2022

Wall Time:      101.65 seconds

                                                       Time (seconds)
Module                                       User      System        Wall        Calls
Total PK formation time             :      0.067u      0.000s      0.047w      2 calls
HF: Form core H                     :      0.000u      0.000s      0.001w      2 calls
HF: Form S/X                        :      0.000u      0.000s      0.000w      2 calls
HF: Guess                           :      0.217u      0.000s      0.139w      2 calls
SAD Guess                           :      0.200u      0.000s      0.132w      2 calls
HF: Form G                          :      0.000u      0.000s      0.003w     26 calls
JK: D                               :      0.000u      0.000s      0.000w     26 calls
JK: USO2AO                          :      0.000u      0.000s      0.001w     26 calls
JK: JK                              :      0.000u      0.000s      0.002w     26 calls
PK computes JK                      :      0.000u      0.000s      0.001w     26 calls
JK: AO2USO                          :      0.000u      0.000s      0.000w     26 calls
HF: Form F                          :      0.000u      0.000s      0.000w     26 calls
HF: Form D                          :      0.000u      0.000s      0.000w     26 calls
HF: DIIS                            :      0.000u      0.000s      0.007w     24 calls
DIISManager::add_entry              :      0.000u      0.000s      0.001w     24 calls
DIISManager::extrapolate            :      0.000u      0.000s      0.001w     24 calls
bMatrix setup                       :      0.000u      0.000s      0.000w     24 calls
bMatrix pseudoinverse               :      0.000u      0.000s      0.000w     24 calls
New vector                          :      0.000u      0.000s      0.000w     24 calls
HF: Form C                          :      0.000u      0.000s      0.002w     24 calls

--------------------------------------------------------------------------------------
Total PK formation time             :      0.067u      0.000s      0.047w      2 calls
HF: Form core H                     :      0.000u      0.000s      0.001w      2 calls
HF: Form S/X                        :      0.000u      0.000s      0.000w      2 calls
HF: Guess                           :      0.217u      0.000s      0.139w      2 calls
| SAD Guess                         :      0.200u      0.000s      0.132w      2 calls
HF: Form G                          :      0.000u      0.000s      0.003w     26 calls
| JK: D                             :      0.000u      0.000s      0.000w     26 calls
| JK: USO2AO                        :      0.000u      0.000s      0.001w     26 calls
| JK: JK                            :      0.000u      0.000s      0.002w     26 calls
| | PK computes JK                  :      0.000u      0.000s      0.001w     26 calls
| JK: AO2USO                        :      0.000u      0.000s      0.000w     26 calls
HF: Form F                          :      0.000u      0.000s      0.000w     26 calls
HF: Form D                          :      0.000u      0.000s      0.000w     26 calls
HF: DIIS                            :      0.000u      0.000s      0.007w     24 calls
| DIISManager::add_entry            :      0.000u      0.000s      0.001w     24 calls
| DIISManager::extrapolate          :      0.000u      0.000s      0.001w     24 calls
| | bMatrix setup                   :      0.000u      0.000s      0.000w     24 calls
| | bMatrix pseudoinverse           :      0.000u      0.000s      0.000w     24 calls
| | New vector                      :      0.000u      0.000s      0.000w     24 calls
HF: Form C                          :      0.000u      0.000s      0.002w     24 calls

**************************************************************************************

Host: laptop21

Timers On : Wed Jan 12 16:00:37 2022
Timers Off: Wed Jan 12 16:00:42 2022

Wall Time:        5.53 seconds

                                                       Time (seconds)
Module                                       User      System        Wall        Calls
Total PK formation time             :      0.017u      0.000s      0.019w      1 calls
HF: Form core H                     :      0.000u      0.000s      0.001w      1 calls
HF: Form S/X                        :      0.000u      0.000s      0.000w      1 calls
HF: Guess                           :      0.117u      0.017s      0.067w      1 calls
SAD Guess                           :      0.100u      0.017s      0.064w      1 calls
HF: Form G                          :      0.000u      0.000s      0.001w     13 calls
JK: D                               :      0.000u      0.000s      0.000w     13 calls
JK: USO2AO                          :      0.000u      0.000s      0.000w     13 calls
JK: JK                              :      0.000u      0.000s      0.001w     13 calls
PK computes JK                      :      0.000u      0.000s      0.001w     13 calls
JK: AO2USO                          :      0.000u      0.000s      0.000w     13 calls
HF: Form F                          :      0.000u      0.000s      0.000w     13 calls
HF: Form D                          :      0.000u      0.000s      0.000w     13 calls
HF: DIIS                            :      0.000u      0.000s      0.004w     12 calls
DIISManager::add_entry              :      0.000u      0.000s      0.000w     12 calls
DIISManager::extrapolate            :      0.000u      0.000s      0.001w     12 calls
bMatrix setup                       :      0.000u      0.000s      0.000w     12 calls
bMatrix pseudoinverse               :      0.000u      0.000s      0.000w     12 calls
New vector                          :      0.000u      0.000s      0.000w     12 calls
HF: Form C                          :      0.000u      0.000s      0.001w     12 calls

--------------------------------------------------------------------------------------
Total PK formation time             :      0.017u      0.000s      0.019w      1 calls
HF: Form core H                     :      0.000u      0.000s      0.001w      1 calls
HF: Form S/X                        :      0.000u      0.000s      0.000w      1 calls
HF: Guess                           :      0.117u      0.017s      0.067w      1 calls
| SAD Guess                         :      0.100u      0.017s      0.064w      1 calls
HF: Form G                          :      0.000u      0.000s      0.001w     13 calls
| JK: D                             :      0.000u      0.000s      0.000w     13 calls
| JK: USO2AO                        :      0.000u      0.000s      0.000w     13 calls
| JK: JK                            :      0.000u      0.000s      0.001w     13 calls
| | PK computes JK                  :      0.000u      0.000s      0.001w     13 calls
| JK: AO2USO                        :      0.000u      0.000s      0.000w     13 calls
HF: Form F                          :      0.000u      0.000s      0.000w     13 calls
HF: Form D                          :      0.000u      0.000s      0.000w     13 calls
HF: DIIS                            :      0.000u      0.000s      0.004w     12 calls
| DIISManager::add_entry            :      0.000u      0.000s      0.000w     12 calls
| DIISManager::extrapolate          :      0.000u      0.000s      0.001w     12 calls
| | bMatrix setup                   :      0.000u      0.000s      0.000w     12 calls
| | bMatrix pseudoinverse           :      0.000u      0.000s      0.000w     12 calls
| | New vector                      :      0.000u      0.000s      0.000w     12 calls
HF: Form C                          :      0.000u      0.000s      0.001w     12 calls

**************************************************************************************

Host: laptop21

Timers On : Wed Jan 12 16:00:44 2022
Timers Off: Wed Jan 12 16:02:27 2022

Wall Time:      103.20 seconds

                                                       Time (seconds)
Module                                       User      System        Wall        Calls
Total PK formation time             :      0.033u      0.000s      0.020w      1 calls
HF: Form core H                     :      0.000u      0.000s      0.000w      1 calls
HF: Form S/X                        :      0.000u      0.000s      0.000w      1 calls
HF: Guess                           :      0.117u      0.000s      0.069w      1 calls
SAD Guess                           :      0.117u      0.000s      0.065w      1 calls
HF: Form G                          :      0.000u      0.000s      0.001w     13 calls
JK: D                               :      0.000u      0.000s      0.000w     13 calls
JK: USO2AO                          :      0.000u      0.000s      0.000w     13 calls
JK: JK                              :      0.000u      0.000s      0.001w     13 calls
PK computes JK                      :      0.000u      0.000s      0.001w     13 calls
JK: AO2USO                          :      0.000u      0.000s      0.000w     13 calls
HF: Form F                          :      0.000u      0.000s      0.000w     13 calls
HF: Form D                          :      0.000u      0.000s      0.000w     13 calls
HF: DIIS                            :      0.000u      0.000s      0.004w     12 calls
DIISManager::add_entry              :      0.000u      0.000s      0.000w     12 calls
DIISManager::extrapolate            :      0.000u      0.000s      0.001w     12 calls
bMatrix setup                       :      0.000u      0.000s      0.000w     12 calls
bMatrix pseudoinverse               :      0.000u      0.000s      0.000w     12 calls
New vector                          :      0.000u      0.000s      0.000w     12 calls
HF: Form C                          :      0.000u      0.000s      0.001w     12 calls

--------------------------------------------------------------------------------------
Total PK formation time             :      0.033u      0.000s      0.020w      1 calls
HF: Form core H                     :      0.000u      0.000s      0.000w      1 calls
HF: Form S/X                        :      0.000u      0.000s      0.000w      1 calls
HF: Guess                           :      0.117u      0.000s      0.069w      1 calls
| SAD Guess                         :      0.117u      0.000s      0.065w      1 calls
HF: Form G                          :      0.000u      0.000s      0.001w     13 calls
| JK: D                             :      0.000u      0.000s      0.000w     13 calls
| JK: USO2AO                        :      0.000u      0.000s      0.000w     13 calls
| JK: JK                            :      0.000u      0.000s      0.001w     13 calls
| | PK computes JK                  :      0.000u      0.000s      0.001w     13 calls
| JK: AO2USO                        :      0.000u      0.000s      0.000w     13 calls
HF: Form F                          :      0.000u      0.000s      0.000w     13 calls
HF: Form D                          :      0.000u      0.000s      0.000w     13 calls
HF: DIIS                            :      0.000u      0.000s      0.004w     12 calls
| DIISManager::add_entry            :      0.000u      0.000s      0.000w     12 calls
| DIISManager::extrapolate          :      0.000u      0.000s      0.001w     12 calls
| | bMatrix setup                   :      0.000u      0.000s      0.000w     12 calls
| | bMatrix pseudoinverse           :      0.000u      0.000s      0.000w     12 calls
| | New vector                      :      0.000u      0.000s      0.000w     12 calls
HF: Form C                          :      0.000u      0.000s      0.001w     12 calls

**************************************************************************************

Host: laptop21

Timers On : Wed Jan 12 16:02:36 2022
Timers Off: Wed Jan 12 16:03:01 2022

Wall Time:       25.45 seconds

                                                       Time (seconds)
Module                                       User      System        Wall        Calls
Total PK formation time             :      0.033u      0.000s      0.018w      1 calls
HF: Form core H                     :      0.000u      0.000s      0.000w      1 calls
HF: Form S/X                        :      0.000u      0.000s      0.000w      1 calls
HF: Guess                           :      0.050u      0.000s      0.035w      1 calls
SAD Guess                           :      0.050u      0.000s      0.031w      1 calls
HF: Form G                          :      0.000u      0.000s      0.001w      6 calls
JK: D                               :      0.000u      0.000s      0.000w      6 calls
JK: USO2AO                          :      0.000u      0.000s      0.000w      6 calls
JK: JK                              :      0.000u      0.000s      0.000w      6 calls
PK computes JK                      :      0.000u      0.000s      0.000w      6 calls
JK: AO2USO                          :      0.000u      0.000s      0.000w      6 calls
HF: Form F                          :      0.000u      0.000s      0.000w      6 calls
HF: Form D                          :      0.000u      0.000s      0.000w      6 calls
HF: DIIS                            :      0.000u      0.000s      0.001w      5 calls
DIISManager::add_entry              :      0.000u      0.000s      0.000w      5 calls
DIISManager::extrapolate            :      0.000u      0.000s      0.000w      5 calls
bMatrix setup                       :      0.000u      0.000s      0.000w      5 calls
bMatrix pseudoinverse               :      0.000u      0.000s      0.000w      5 calls
New vector                          :      0.000u      0.000s      0.000w      5 calls
HF: Form C                          :      0.000u      0.000s      0.000w      5 calls

--------------------------------------------------------------------------------------
Total PK formation time             :      0.033u      0.000s      0.018w      1 calls
HF: Form core H                     :      0.000u      0.000s      0.000w      1 calls
HF: Form S/X                        :      0.000u      0.000s      0.000w      1 calls
HF: Guess                           :      0.050u      0.000s      0.035w      1 calls
| SAD Guess                         :      0.050u      0.000s      0.031w      1 calls
HF: Form G                          :      0.000u      0.000s      0.001w      6 calls
| JK: D                             :      0.000u      0.000s      0.000w      6 calls
| JK: USO2AO                        :      0.000u      0.000s      0.000w      6 calls
| JK: JK                            :      0.000u      0.000s      0.000w      6 calls
| | PK computes JK                  :      0.000u      0.000s      0.000w      6 calls
| JK: AO2USO                        :      0.000u      0.000s      0.000w      6 calls
HF: Form F                          :      0.000u      0.000s      0.000w      6 calls
HF: Form D                          :      0.000u      0.000s      0.000w      6 calls
HF: DIIS                            :      0.000u      0.000s      0.001w      5 calls
| DIISManager::add_entry            :      0.000u      0.000s      0.000w      5 calls
| DIISManager::extrapolate          :      0.000u      0.000s      0.000w      5 calls
| | bMatrix setup                   :      0.000u      0.000s      0.000w      5 calls
| | bMatrix pseudoinverse           :      0.000u      0.000s      0.000w      5 calls
| | New vector                      :      0.000u      0.000s      0.000w      5 calls
HF: Form C                          :      0.000u      0.000s      0.000w      5 calls

**************************************************************************************
