Basis is STO-3G
Core-guess
 --invoking executable--
/home/thomas/Packages/cfour-v2.1/bin/xjoda


   *************************************************************************
         <<<     CCCCCC     CCCCCC   |||     CCCCCC     CCCCCC   >>>
       <<<      CCC        CCC       |||    CCC        CCC         >>>
      <<<      CCC        CCC        |||   CCC        CCC            >>>
    <<<        CCC        CCC        |||   CCC        CCC              >>>
      <<<      CCC        CCC        |||   CCC        CCC            >>>
       <<<      CCC        CCC       |||    CCC        CCC         >>>
         <<<     CCCCCC     CCCCCC   |||     CCCCCC     CCCCCC   >>>
   *************************************************************************

     ****************************************************************
     * CFOUR Coupled-Cluster techniques for Computational Chemistry *
     ****************************************************************


   Department of Chemistry                Institut fuer Physikalische Chemie
   University of Florida                  Universitaet Mainz
   Gainesville, FL 32611, USA             D-55099 Mainz, Germany

   Department of Chemistry                Department of Chemistry
   Johns Hopkins University               Southern Methodist University
   Baltimore, MD 21218, USA               Dallas, TX 75275, USA

   Institute of Nanotechnology            Department of Physical Chemistry
   Karlsruhe Inst. of Technology          Eotvos Lorand University
   D-76021 Karlsruhe, Germany             H-1053 Budapest, Hungary


                       Version 2.1

                     laptop21                                          
                     Thu 13 Jan 2022 06:45:26 PM CST                   
                     integer*8 version is running

********************************************************************************
*                          Input from ZMAT file                                *
********************************************************************************
(H2O)4 in a D2h arrangement                                                     
O                                                                               
O 1 OO2                                                                         
O 2 OO3 1 OOO3                                                                  
O 1 OO3 2 OOO3 3 DIH4                                                           
H 4 HO5 3 HOO5 2 DIH5                                                           
H 4 HO5 3 HOO5 2 DIH6                                                           
H 3 HO5 4 HOO5 1 DIH5                                                           
H 3 HO5 4 HOO5 1 DIH6                                                           
H 1 HO5 2 HOO5 3 DIH5                                                           
H 1 HO5 2 HOO5 3 DIH6                                                           
H 2 HO5 1 HOO5 4 DIH5                                                           
H 2 HO5 1 HOO5 4 DIH6                                                           
                                                                                
OO2=5.000000                                                                    
OO3=4.000000                                                                    
OOO3=90.000                                                                     
DIH4=0.000                                                                      
HO5=0.950000                                                                    
HOO5=52.300                                                                     
DIH5=125.000                                                                    
DIH6=-125.000                                                                   
                                                                                
*CFOUR(CALC=SCF                                                                 
BASIS=SPECIAL,SPHERICAL=ON                                                      
REFERENCE=RHF                                                                   
MEM_SIZE=2,MEM_UNIT=GB)                                                         
                                                                                
O:P4_STO-3G                                                                     
O:P4_STO-3G                                                                     
O:P4_STO-3G                                                                     
O:P4_STO-3G                                                                     
H:P4_STO-3G                                                                     
H:P4_STO-3G                                                                     
H:P4_STO-3G                                                                     
H:P4_STO-3G                                                                     
H:P4_STO-3G                                                                     
H:P4_STO-3G                                                                     
H:P4_STO-3G                                                                     
H:P4_STO-3G                                                                     
                                                                                
********************************************************************************
    -------------------------------------------------------------------
                    CFOUR Control Parameters 
    -------------------------------------------------------------------
        External           Internal           Value            Units
          Name               Name
    -------------------------------------------------------------------
       ABCDTYPE             IABCDT         STANDARD    [  0]    ***   
       ANHARMONIC           IANHAR         OFF         [  0]    ***   
       ANH_ALGORIT          IANALG         STANDARD    [  0]    ***   
       ANH_DERIVAT          IANDER         SECOND      [  1]    ***   
       ANH_MODE             ANHMOD         VIBRATION   [  0]    ***   
       ANH_STEPSIZ          ICUBST             50000          x 10-6  
       ANH_SYMMETR          IANHSM         ABELIAN     [  0]    ***   
       AO_LADDERS           IAOLAD         SINGLEPASS  [  1]    ***   
       AV_SCF               IAVSCF         OFF         [  0]    ***   
       BASIS                IBASIS         SPECIAL     [  0]    ***   
       BOTHVECTORS          BOTHVC         OFF         [  0]    ***   
       BOX_POTENT           IPIAB          OFF         [  0]    ***   
       BREIT                IBREIT         OFF         [  0]    ***   
       BRUCK_CONV           IBRTOL          10D-  4             ***   
       BRUECKNER            IBRKNR         OFF         [  0]    ***   
       BUFFERSIZE           IBUFFS              4096            ***   
       CACHE_RECS           ICHREC             10               ***   
       CALCLEVEL            ICLLVL         SCF         [  0]    ***   
       CCORBOPT             ICCORB         OFF         [  0]  x 0.01  
       CC_CONV              ICCCNV          10D-  7             ***   
       CC_EXPORDER          ICCEOR              0               ***   
       CC_EXTRAPOL          ICCEXT         DIIS        [  1]    ***   
       CC_GUESS             ICCGES         MP2         [  0]    ***   
       CC_MAXCYC            ICCCYC              0              cycles 
       CC_PROGRAM           ICCPRO         VCC         [  0]    ***   
       CHARGE               ICHRGE              0               ***   
       CHOLESKY             ICHOLE         OFF         [  0]    ***   
       CIS_CONV             ICISTL              5               ***   
       COMM_SIZE            IPSIZE            ***               ***   
       CONSTANT             ICONST         OLD         [  1]    ***   
       CONTINUUM            ICONTU         NONE        [  0]    ***   
       CONTRACTION          ICNTYP         GENERAL     [  1]    ***   
       COORDINATES          ICOORD         INTERNAL    [  0]    ***   
       CPHF_CONVER          ICPHFT          10D- 16             ***   
       CPHF_MAXCYC          ICPHFC             64              cycles 
       CUBIC                ICUBIC         OFF         [  0]    ***   
       CURVILINEAR          ICURVY         OFF         [  0]    ***   
       DBOC                 IDBOC          OFF         [  0]    ***   
       DCT                  IDCT           OFF         [  0]    ***   
       DERIV_LEV            IDRLVL         ZERO        [  0]    ***   
       DEVMEM_SIZE          IDVMEM         *********           MByte  
       DIAG_MRCC            IEOMST          10D-  0             ***   
       DIFF_TYPE            IDIFTY         RELAXED     [  0]    ***   
       DIRECT               IDIRCT         OFF         [  0]    ***   
       DROPMO               IDRPMO      NONE         
       ECP                  IECP           OFF         [  0]    ***   
       EIGENVECTOR          IVEC                1               ***   
       EL_ANHARM            IELANH         OFF         [  0]    ***   
       EOMFOLLOW            IEOMSR         ENERGY      [  0]    ***   
       EOMIP                IEOMIP         OFF         [  0]    ***   
       EOMLEVEL             HBARFM         SAME        [  0]    ***   
       EOM_MRCC             IMRCCE         NEW         [  1]    ***   
       EOM_NONIT            EOMNON         OFF         [  0]    ***   
       EOM_NSING            IEOMSI          10D-  0             ***   
       EOM_NSTATES          IMRCCD         DAVIDSON    [  0]    ***   
       EOM_NTRIP            IEOMTR          10D-  0             ***   
       EOM_ORDER            IEXORD         ENERGY      [  0]    ***   
       EOM_PROPSTA          IEOMST              0               ***   
       ESTATE_CONV          IEXTOL          10D-  5             ***   
       ESTATE_DIAG          IEXDIG         ITERATIVE   [  0]    ***   
       ESTATE_LOCK          IESLOC         ON          [  1]    ***   
       ESTATE_MAXC          IEXMXC             40               ***   
       ESTATE_PROP          IEXPRP         OFF         [  0]    ***   
       EVAL_HESS            IRECAL              0            # of cyc.
       EXCITATION           IEXCIT              0               ***   
       EXCITE               IEXCIT         NONE        [  0]    ***   
       EXTERN_POT           IEXPOT         OFF         [  0]    ***   
       FCGRADNEW            IFCGNW         OFF         [  0]    ***   
       FC_FIELD             IFINFC              0             x 10-6  
       FD_CALTYPE           IFDCAL         GRADONLY    [  0]    ***   
       FD_PROJECT           IFDPRJ         OFF         [  1]    ***   
       FD_STEPSIZE          IDISFD              0            10-4 bohr
       FD_USEGROUP          IFDGRP         FULL        [  0]    ***   
       FILE_RECSIZ          IFLREC              4096           words  
       FINITE_PERT          IFIPER              0             x 10-6  
       FIXGEOM              IFIXGM         OFF         [  0]    ***   
       FOCK                 IFOCK          AO          [  1]    ***   
       FREQ_ALGORI          IVIALG         STANDARD    [  0]    ***   
       FROZEN_CORE          IFROCO         OFF         [  0]    ***   
       GAMMA_ABCD           IGABCD         STORE       [  0]    ***   
       GAMMA_ABCI           IGABCI         STORE       [  0]    ***   
       GENBAS_1             IGNBS1              0               ***   
       GENBAS_2             IGNBS2              0               ***   
       GENBAS_3             IGNBS3              0               ***   
       GENBAS_4             IGNBS4              0               ***   
       GEO_CONV             ICONTL              5              H/bohr 
       GEO_MAXCYC           IOPTCY             50               ***   
       GEO_MAXSTEP          IMXSTP            300            millibohr
       GEO_METHOD           INR            SINGLE_POINT[  5]    ***   
       GIAO                 IGIAO          OFF         [  1]    ***   
       GIMIC                IGIMIC         OFF         [  0]    ***   
       GRID                 IGRID          OFF         [  0]    ***   
       GRID_ALGO            IGALGO         SERIAL      [  0]    ***   
       GUESS                IGUESS         MOREAD      [  0]    ***   
       HBAR                 IHBAR          OFF         [  0]    ***   
       HESS_TYPE            IHESTP         SCF         [  0]    ***   
       HF2_FILE             IHF2Fl         USE         [  1]    ***   
       HFSTABILITY          ISTABL         OFF         [  0]    ***   
       INCORE               INCORE         OFF         [  0]    ***   
       INPUT_MRCC           IMRCC          ON          [  1]    ***   
       INTEGRALS            INTTYP         VMOL        [  1]    ***   
       JODA_PRINT           IJPRNT              0               ***   
       KEYWORD_OUT          IDMPKW         NO          [  0]    ***   
       LINDEP_TOL           ILINDP              8               ***   
       LINEQ_CONV           IZTACN          10D-  7           cycles  
       LINEQ_EXPOR          ILMAXD              5               ***   
       LINEQ_MAXCY          ILMAXC            100               ***   
       LINEQ_TYPE           ILTYPE         DIIS        [  1]    ***   
       LOCK_ORBOCC          ILOCOC         OFF         [  0]    ***   
       MEMORY_SIZE          IMEMSZ         250000000           words  
       MEM_UNIT             IMEMU          GB          [  3]    ***   
       MRCC                 IMRCCC         OFF         [  0]    ***   
       MULTIPLICTY          IMULTP              1               ***   
       NACOUPLING           IVCOUP         OFF         [  0]    ***   
       NEGEVAL              IDIE           ABORT       [  0]    ***   
       NEWNORM              INEWNO         OFF         [  0]    ***   
       NON-HF               INONHF         OFF         [  0]    ***   
       NTOP_TAMP            ITOPT2             15               ***   
       NUC_MODEL            INUCMO         POINT       [  0]    ***   
       OCCUPATION           IOCCU   ESTIMATED BY SCF 
       OPEN-SHELL           IOPEN          SPIN-ORBITAL[  0]    ***   
       OPTVIB               IOPTVB         OFF         [  0]    ***   
       ORBITALS             IORBTP         STANDARD    [  0]    ***   
       PARALLEL             IPARAL         ON          [  1]    ***   
       PARA_INT             IPINTS         ON          [  1]    ***   
       PARA_PRINT           IPPRIN              0               ***   
       PERT_ORB             IPTORB         STANDARD    [  0]    ***   
       POINTS               IGRDFD              0               ***   
       PRINT                IPRNT               0               ***   
       PROPS                IPROPS         OFF         [  0]    ***   
       PROP_INTEGR          IINTYP         INTERNAL    [  0]    ***   
       PSI                  IPSI           OFF         [  0]    ***   
       QC_ALG               IQCALG         FLM         [  0]    ***   
       QC_LINALG            IQCLIN         TRIDIAG     [  2]    ***   
       QC_MAXCYC            IQCMAX          10D-100           cycles  
       QC_MAXSCFCY          IQCMSC          10D- 15           cycles  
       QC_RTRUST            IQCRTR          10D-  0           x 10-3  
       QC_SKIPSCF           IQCSKI         OFF         [  0]    ***   
       QC_START             IQCSTA          10D-  1             ***   
       QRHFGUESS            IQGUES         OFF         [  0]    ***   
       QUARTIC              IQUART         OFF         [  0]    ***   
       RAMAN_INT            IRAMIN         OFF         [  0]    ***   
       RAMAN_ORB            IRAMRE         UNRELAXED   [  0]    ***   
       RDO                  IRDOFM         OFF         [  0]    ***   
       REDUCE_REPR          REDREP         Ir          [  0]    ***   
       REFERENCE            IREFNC         RHF         [  0]    ***   
       RELATIVIST           IRELAT         OFF         [  0]    ***   
       RELAX_DENS           IRDENS         OFF         [  0]    ***   
       RESET_FLAGS          IRESET         OFF         [  0]    ***   
       RESTART_CC           ICCRES         OFF         [  0]    ***   
       ROT_EVEC             ROTVEC              0               ***   
       SAVE_INTS            ISVINT         OFF         [  0]    ***   
       SCALE_ON             ISTCRT              0               ***   
       SCF_CONV             ISCFCV          10D-  7             ***   
       SCF_DAMPING          IDAMP               0             x 10-3  
       SCF_EXPORDE          IRPPOR              6               ***   
       SCF_EXPSTAR          IRPPLS              8               ***   
       SCF_EXTRAPO          IRPP           ON          [  1]    ***   
       SCF_MAXCYC           ISCFCY            150              cycles 
       SCF_NOSTOP           ISCFST         OFF         [  0]    ***   
       SCF_PRINT            ISCFPR              0               ***   
       SCF_PROG             ISCFPR         SCF         [  0]    ***   
       SD_FIELD             IFINSD              0             x 10-6  
       SOPERT               IPERSO         OFF         [  0]    ***   
       SPHERICAL            IDFGHI         ON          [  1]    ***   
       SPINORBIT            ISOCAL         OFF         [  0]    ***   
       SPINROTATIO          ISRCON         OFF         [  0]    ***   
       SPIN_FLIP            ISPFLP         OFF         [  0]    ***   
       SPIN_ORBIT           ISPORB         OFF         [  0]    ***   
       SPIN_SCAL            ISCSMP         OFF         [  0]    ***   
       STEEPSCALE           ISTPSC              1000          x 10-3  
       SUBGROUP             ISUBGP         DEFAULT     [  0]    ***   
       SUBGRPAXIS           ISBXYZ         X           [  0]    ***   
       SYMMETRY             ISYM           ON          [  0]    ***   
       SYM_CHECK            ISYMCK         OVERRIDE    [  1]    ***   
       T3_EXTRAPOL          IT3EXT         OFF         [  0]    ***   
       T4_EXTRAPOL          IT4EXP         OFF         [  0]    ***   
       TAMP_SUM             IEVERY              0               ***   
       TESTSUITE            ITESTS         OFF         [  0]    ***   
       THERMOCH             ITHERM         OFF         [  0]    ***   
       TOL_CHOLESK          ITOLCH          10D-  4             ***   
       TRANGRAD             IRESRM         OFF         [  0]    ***   
       TRANS_INV            ITRAIN         USE         [  0]    ***   
       TREAT_PERT           ITREAT         SIMULTANEOUS[  0]    ***   
       TRIP_ALGORI          ITRALG         NORMAL      [  0]    ***   
       UIJ_THRESHO          IUIJTH              1               ***   
       UNITS                IUNITS         ANGSTROM    [  0]    ***   
       UNOS                 IUNOS          OFF         [  0]    ***   
       UPDATE_HESS          IHUPDT         ON          [  1]    ***   
       VIBPHASE             ISETPH         STANDARD    [  0]    ***   
       VIBRATION            IVIB           NO          [  0]    ***   
       VIB_ALGORIT          IGEALG         STANDARD    [  0]    ***   
       VNATORB              IVNORB         OFF         [  0]    ***   
       VTRAN                IVTRAN         FULL/PARTIAL[  0]    ***   
       XFIELD               IXEFLD              0             x 10-6  
       XFORM_TOL            IXFTOL          10D- 11             ***   
       YFIELD               IYEFLD              0             x 10-6  
       ZFIELD               IZEFLD              0             x 10-6  
       ZSCALE_EXP           IZEXPS         OFF         [  0]    ***   
    -------------------------------------------------------------------
  12 entries found in Z-matrix 
   Job Title : (H2O)4 in a D2h arrangement                                                     
   There are  8 unique internal coordinates.
   Of these,  0 will be optimized.
   User supplied Z-matrix: 
--------------------------------------------------------------------------------
       SYMBOL    BOND      LENGTH    ANGLE     ANGLE     DIHED     ANGLE
                  TO      (ANGST)    WRT      (DEG)      WRT      (DEG)
--------------------------------------------------------------------------------
        O    
        O          1         OO2  
        O          2         OO3        1        OOO3 
        O          1         OO3        2        OOO3       3        DIH4 
        H          4         HO5        3        HOO5       2        DIH5 
        H          4         HO5        3        HOO5       2        DIH6 
        H          3         HO5        4        HOO5       1        DIH5 
        H          3         HO5        4        HOO5       1        DIH6 
        H          1         HO5        2        HOO5       3        DIH5 
        H          1         HO5        2        HOO5       3        DIH6 
        H          2         HO5        1        HOO5       4        DIH5 
        H          2         HO5        1        HOO5       4        DIH6 
                  *Initial values for internal coordinates* 
                      Name             Value
                        OO2             5.0000000000
                        OO3             4.0000000000
                        OOO3           90.0000000000
                        DIH4            0.0000000000
                        HO5             0.9500000000
                        HOO5           52.3000000000
                        DIH5          125.0000000000
                        DIH6         -125.0000000000
--------------------------------------------------------------------------------
   Rotational constants (in cm-1): 
          0.0229938225             0.0389661831             0.0549773478
   Rotational constants (in MHz): 
        689.3375546255          1168.1769436098          1648.1796554055
********************************************************************************
   The full molecular point group is D2h .
   The largest Abelian subgroup of the full molecular point group is D2h .
   The computational point group is D2h .
********************************************************************************
--------------------------------------------------------------------------------
   Analysis of internal coordinates specified by Z-matrix 
--------------------------------------------------------------------------------
   *The nuclear repulsion energy is  101.487001574722967 a.u.
   *There are   5 degrees of freedom within the tot. symm. molecular subspace.
   *Z-matrix requests optimization of   0 coordinates.
   *The optimization is constrained.
   *The following   6 parameters can have non-zero 
    derivatives within the totally symmetric subspace:
             DIH6 [30]  HOO5 [14]  OO3  [ 2]  OO2  [ 1]  HO5  [ 7]  OOO3 [ 3]
   *The following   0 parameters are to be optimized:

   *The following coordinates must be varied in an  unconstrained optimization.
             DIH6 [30]  HOO5 [14]  OO3  [ 2]  OO2  [ 1]  HO5  [ 7]  OOO3 [ 3]
--------------------------------------------------------------------------------


 ----------------------------------------------------------------
         Coordinates used in calculation (QCOMP) 
 ----------------------------------------------------------------
 Z-matrix   Atomic            Coordinates (in bohr)
  Symbol    Number           X              Y              Z
 ----------------------------------------------------------------
     O         8        -4.72431630    -3.77945304     0.00000000
     O         8         4.72431630    -3.77945304     0.00000000
     O         8         4.72431630     3.77945304     0.00000000
     O         8        -4.72431630     3.77945304     0.00000000
     H         1        -3.62647838     4.59418183     1.16355329
     H         1        -3.62647838     4.59418183    -1.16355329
     H         1         3.62647838     4.59418183    -1.16355329
     H         1         3.62647838     4.59418183     1.16355329
     H         1        -3.62647838    -4.59418183    -1.16355329
     H         1        -3.62647838    -4.59418183     1.16355329
     H         1         3.62647838    -4.59418183     1.16355329
     H         1         3.62647838    -4.59418183    -1.16355329
 ----------------------------------------------------------------

   Interatomic distance matrix (Angstroms) 

                 O             O             O             O             H    
                [ 1]        [ 2]        [ 3]        [ 4]        [ 5]
  O    [ 1]     0.00000
  O    [ 2]     5.00000     0.00000
  O    [ 3]     6.40313     4.00000     0.00000
  O    [ 4]     4.00000     6.40313     5.00000     0.00000
  H    [ 5]     4.51127     6.28825     4.48252     0.95000     0.00000
  H    [ 6]     4.51127     6.28825     4.48252     0.95000     1.23145
  H    [ 7]     6.28825     4.51127     0.95000     4.48252     4.03082
  H    [ 8]     6.28825     4.51127     0.95000     4.48252     3.83810
  H    [ 9]     0.95000     4.48252     6.28825     4.51127     5.01579
  H    [10]     0.95000     4.48252     6.28825     4.51127     4.86227
  H    [11]     4.48252     0.95000     4.51127     6.28825     6.19457
  H    [12]     4.48252     0.95000     4.51127     6.28825     6.31579

                 H             H             H             H             H    
                [ 6]        [ 7]        [ 8]        [ 9]        [10]
  H    [ 6]     0.00000
  H    [ 7]     3.83810     0.00000
  H    [ 8]     4.03082     1.23145     0.00000
  H    [ 9]     4.86227     6.19457     6.31579     0.00000
  H    [10]     5.01579     6.31579     6.19457     1.23145     0.00000
  H    [11]     6.31579     5.01579     4.86227     4.03082     3.83810
  H    [12]     6.19457     4.86227     5.01579     3.83810     4.03082

                 H             H    
                [11]        [12]
  H    [11]     0.00000
  H    [12]     1.23145     0.00000
 rotcon2
   Rotational constants (in cm-1): 
          0.0549773478             0.0389661831             0.0229938225
   Rotational constants (in MHz): 
       1648.1796554055          1168.1769436098           689.3375546255
  ECPDATA file not present.   Using default ECPDATA. 
  There are   28 basis functions.
 @GEOPT-W, Archive file not created for single-point calculation.
 @CHECKOUT-I, Total execution time (CPU/WALL):        0.22/       0.12 seconds.
--executable xjoda finished with status     0 in        0.13 seconds (walltime).
 --invoking executable--
/home/thomas/Packages/cfour-v2.1/bin/xvmol

Running with 2 threads/proc

 SERIAL VERSION OF MOLECULE STARTED
********************************************************************************
                    INPUT FROM MOL FILE
********************************************************************************
INTGRL        1    0    1    0    0    0    0    0    0                         
         *** CFOUR Program System (Release V0.1) ***                            
(H2O)4 in a D2h arrangement                                                     
    2    3 X  Y   Z   0.10E-08              0    0                              
   9999.00      3.00                                                            
          8.00000000    1    2    1    1                                        
O #1  -4.724316301669144  -3.779453041335313   0.000000000000000                
    6    2                                                                      
   130.70931999999999       0.15432899999999999        0.0000000000000000       
   23.808861000000000       0.53532809999999997        0.0000000000000000       
   6.4436083000000002       0.44463449999999999        0.0000000000000000       
   5.0331513000000001        0.0000000000000000       -9.9967200000000006E-002  
   1.1695960999999999        0.0000000000000000       0.39951280000000000       
  0.38038899999999998        0.0000000000000000       0.70011550000000000       
    3    1                                                                      
   5.0331513000000001       0.15591630000000001                                 
   1.1695960999999999       0.60768370000000005                                 
  0.38038899999999998       0.39195740000000001                                 
          1.00000000    1    1    1                                             
H #2  -3.626478379021811   4.594181826229343   1.163553290181839                
    3    1                                                                      
   3.4252509000000000       0.15432899999999999                                 
  0.62391370000000002       0.53532809999999997                                 
  0.16885539999999999       0.44463449999999999                                 
FINISH                                                                          

********************************************************************************
 ONE- AND TWO-ELECTRON INTEGRALS OVER SYMMETRY-ADAPTED AOS ARE CALCULATED.

  SPHERICAL HARMONICS ARE USED.
  
  INTEGRALS LESS THAN  0.10E-13 ARE NEGLECTED.

  NUCLEAR REPULSION ENERGY :  101.4870015747 A.U.
  @MOLECU-I, ONE ELECTRON INTEGRALS (CPU/WALL):        0.00/       0.00 SECONDS.
  @TWOEL-I,        504 INTEGRALS OF SYMMETRY TYPE  I I I I
  @TWOEL-I,       2890 INTEGRALS OF SYMMETRY TYPE  I J I J
  @TWOEL-I,       2124 INTEGRALS OF SYMMETRY TYPE  I I J J
  @TWOEL-I,       5523 INTEGRALS OF SYMMETRY TYPE  I J K L
  @TWOEL-I, TOTAL NUMBER OF 2-E INTEGRALS      11041.
  @MOLECU-I, TWO ELECTRON INTEGRALS (CPU/WALL):        0.04/       0.02 SECONDS.
 @CHECKOUT-I, Total execution time (CPU/WALL):        0.04/       0.02 seconds.
--executable xvmol finished with status     0 in        0.03 seconds (walltime).
 --invoking executable--
/home/thomas/Packages/cfour-v2.1/bin/xvmol2ja
 @GETMEM-I,  Allocated    1907 MB of main memory.
 @CHECKOUT-I, Total execution time (CPU/WALL):        0.00/       0.00 seconds.
--executable xvmol2ja finished with status     0 in        0.00 seconds (walltime).
 --invoking executable--
/home/thomas/Packages/cfour-v2.1/bin/xvscf
  There are   28 functions in the AO basis.

  There are 8 irreducible representations.

       Irrep        # of functions
         1                  5
         2                  5
         3                  5
         4                  5
         5                  2
         6                  2
         7                  2
         8                  2


  Parameters for SCF calculation: 
        SCF reference function:  RHF  
  Maximum number of iterations:  150
     Full symmetry point group: D2h 
     Computational point group: D2h 
        Initial density matrix: MOREAD                 
     SCF convergence tolerance: 10**(- 7)
  DIIS convergence acceleration:  ON
          Latest start for DIIS:   8
                     DIIS order:   6

  Memory information:      66266 words required.
  Fock matrices are constructed from AO integral file.
 @GETMEM-I,  Allocated       0 MB of main memory.
  Initialization and symmetry analysis required      0.001 seconds.

  @INITGES-I, Occupancies from core Hamiltonian:

          Alpha population by irrep:   4    4    4    4    1    1    1    1
           Beta population by irrep:   4    4    4    4    1    1    1    1


 total no. of electrons in initial guess :   0.0000000000000000     
  --------------------------------------------------------------------
  Iteration         Total Energy            Largest Density Difference
  --------------------------------------------------------------------
       0           101.487001574722981              0.0000000000D+00
   current occupation vector 
     4  4  4  4  1  1  1  1
     4  4  4  4  1  1  1  1
       1          -292.650140940715914              0.6793534857D+00
   current occupation vector 
     4  4  4  4  1  1  1  1
     4  4  4  4  1  1  1  1
       2          -299.496726977039543              0.4131432149D+00
   current occupation vector 
     4  4  4  4  1  1  1  1
     4  4  4  4  1  1  1  1
       3          -299.749583203359578              0.6769779451D-01
   current occupation vector 
     4  4  4  4  1  1  1  1
     4  4  4  4  1  1  1  1
       4          -299.759269403979431              0.1561032488D-01
   current occupation vector 
     4  4  4  4  1  1  1  1
     4  4  4  4  1  1  1  1
       5          -299.759536483950399              0.2307127391D-02
   current occupation vector 
     4  4  4  4  1  1  1  1
     4  4  4  4  1  1  1  1
       6          -299.759564112761780              0.8273685301D-03
   current occupation vector 
     4  4  4  4  1  1  1  1
     4  4  4  4  1  1  1  1
       7          -299.759564492339393              0.1120678668D-03
   current occupation vector 
     4  4  4  4  1  1  1  1
     4  4  4  4  1  1  1  1
       8          -299.759564493802770              0.8094543955D-05
   current occupation vector 
     4  4  4  4  1  1  1  1
     4  4  4  4  1  1  1  1
       9          -299.759564493804589              0.3020730244D-06
   current occupation vector 
     4  4  4  4  1  1  1  1
     4  4  4  4  1  1  1  1

  SCF has converged.

 Density matrix saved to file den.dat
 total electron number:   39.999999999999993     
     E(SCF)=      -299.759564493803794              0.3559914585D-08

  Eigenvector printing suppressed.

 @PUTMOS-I, Writing converged MOs to NEWMOS. 
 @PUTMOS-I, Symmetry   1 Full Blocks  1 Partial Blocksize   1
 @PUTMOS-I, Symmetry   2 Full Blocks  1 Partial Blocksize   1
 @PUTMOS-I, Symmetry   3 Full Blocks  1 Partial Blocksize   1
 @PUTMOS-I, Symmetry   4 Full Blocks  1 Partial Blocksize   1
 @PUTMOS-I, Symmetry   5 Full Blocks  0 Partial Blocksize   2
 @PUTMOS-I, Symmetry   6 Full Blocks  0 Partial Blocksize   2
 @PUTMOS-I, Symmetry   7 Full Blocks  0 Partial Blocksize   2
 @PUTMOS-I, Symmetry   8 Full Blocks  0 Partial Blocksize   2
 @PUTFOCK-I, Writing converged Fock matrix to NEWFOCK. 
 @PUTFOCK-I, Symmetry   1 Full Blocks  1 Partial Blocksize   1
 @PUTFOCK-I, Symmetry   2 Full Blocks  1 Partial Blocksize   1
 @PUTFOCK-I, Symmetry   3 Full Blocks  1 Partial Blocksize   1
 @PUTFOCK-I, Symmetry   4 Full Blocks  1 Partial Blocksize   1
 @PUTFOCK-I, Symmetry   5 Full Blocks  0 Partial Blocksize   2
 @PUTFOCK-I, Symmetry   6 Full Blocks  0 Partial Blocksize   2
 @PUTFOCK-I, Symmetry   7 Full Blocks  0 Partial Blocksize   2
 @PUTFOCK-I, Symmetry   8 Full Blocks  0 Partial Blocksize   2



  ORBITAL EIGENVALUES (ALPHA)  (1H = 27.2113834 eV)

       MO #        E(hartree)               E(eV)           FULLSYM    COMPSYM
       ----   --------------------   --------------------   -------   ---------
    1     6         -20.2634563143        -551.3966787784               B2u (2)
    2    16         -20.2634560892        -551.3966726530               B1g (4)
    3     1         -20.2634471783        -551.3964301756                Ag (1)
    4    11         -20.2634469647        -551.3964243607               B3u (3)
    5     2          -1.3005707220         -35.3903285546      Ag        Ag (1)
    6     7          -1.3005268865         -35.3891357308     B2u       B2u (2)
    7    12          -1.3004971150         -35.3883256069     B3u       B3u (3)
    8    17          -1.3004537645         -35.3871459784     B1g       B1g (4)
    9    21          -0.5730024463         -15.5921892546     B1u       B1u (5)
   10    25          -0.5729140837         -15.5897847866     B2g       B2g (7)
   11    23          -0.5725996874         -15.5812296276     B3g       B3g (6)
   12    27          -0.5725127971         -15.5788652244      Au        Au (8)
   13    13          -0.5081699682         -13.8280078379     B3u       B3u (3)
   14     3          -0.5081526132         -13.8275355838      Ag        Ag (1)
   15    18          -0.5071540161         -13.8003623747     B1g       B1g (4)
   16     8          -0.5071341788         -13.7998225754     B2u       B2u (2)
   17     9          -0.4047227313         -11.0130654114               B2u (2)
   18     4          -0.4047226828         -11.0130640923                Ag (1)
   19    19          -0.4044917507         -11.0067801100               B1g (4)
   20    14          -0.4044913704         -11.0067697623               B3u (3)
  +++++++++++++++++++++++++++++++++++++++++++++++++++++++++++++++++++++++++++++
   21     5           0.6186052107          16.8331035623      Ag        Ag (1)
   22    15           0.6195319603          16.8583217016     B3u       B3u (3)
   23    10           0.6302450624          17.1498400283     B2u       B2u (2)
   24    20           0.6311554995          17.1746142827     B1g       B1g (4)
   25    22           0.6965948960          18.9553107889     B1u       B1u (5)
   26    26           0.6966991931          18.9581488589     B2g       B2g (7)
   27    24           0.7007485518          19.0683375094     B3g       B3g (6)
   28    28           0.7008445411          19.0709495104      Au        Au (8)


  VSCF finished.

 @CHECKOUT-I, Total execution time (CPU/WALL):        0.01/       0.01 seconds.
--executable xvscf finished with status     0 in        0.01 seconds (walltime).
  The final electronic energy is      -299.759564493803794 a.u. 
  This computation required                            0.18 seconds (walltime).
