Basis is CC-PVDZ
Core-guess
 --invoking executable--
/home/thomas/Packages/cfour-v2.1/bin/xjoda


   *************************************************************************
         <<<     CCCCCC     CCCCCC   |||     CCCCCC     CCCCCC   >>>
       <<<      CCC        CCC       |||    CCC        CCC         >>>
      <<<      CCC        CCC        |||   CCC        CCC            >>>
    <<<        CCC        CCC        |||   CCC        CCC              >>>
      <<<      CCC        CCC        |||   CCC        CCC            >>>
       <<<      CCC        CCC       |||    CCC        CCC         >>>
         <<<     CCCCCC     CCCCCC   |||     CCCCCC     CCCCCC   >>>
   *************************************************************************

     ****************************************************************
     * CFOUR Coupled-Cluster techniques for Computational Chemistry *
     ****************************************************************


   Department of Chemistry                Institut fuer Physikalische Chemie
   University of Florida                  Universitaet Mainz
   Gainesville, FL 32611, USA             D-55099 Mainz, Germany

   Department of Chemistry                Department of Chemistry
   Johns Hopkins University               Southern Methodist University
   Baltimore, MD 21218, USA               Dallas, TX 75275, USA

   Institute of Nanotechnology            Department of Physical Chemistry
   Karlsruhe Inst. of Technology          Eotvos Lorand University
   D-76021 Karlsruhe, Germany             H-1053 Budapest, Hungary


                       Version 2.1

                     laptop21                                          
                     Thu 13 Jan 2022 07:19:29 PM CST                   
                     integer*8 version is running

********************************************************************************
*                          Input from ZMAT file                                *
********************************************************************************
(H2O)4 in a D2h arrangement                                                     
O                                                                               
O 1 OO2                                                                         
O 2 OO3 1 OOO3                                                                  
O 1 OO3 2 OOO3 3 DIH4                                                           
H 4 HO5 3 HOO5 2 DIH5                                                           
H 4 HO5 3 HOO5 2 DIH6                                                           
H 3 HO5 4 HOO5 1 DIH5                                                           
H 3 HO5 4 HOO5 1 DIH6                                                           
H 1 HO5 2 HOO5 3 DIH5                                                           
H 1 HO5 2 HOO5 3 DIH6                                                           
H 2 HO5 1 HOO5 4 DIH5                                                           
H 2 HO5 1 HOO5 4 DIH6                                                           
                                                                                
OO2=5.000000                                                                    
OO3=4.000000                                                                    
OOO3=90.000                                                                     
DIH4=0.000                                                                      
HO5=0.950000                                                                    
HOO5=52.300                                                                     
DIH5=125.000                                                                    
DIH6=-125.000                                                                   
                                                                                
*CFOUR(CALC=SCF                                                                 
BASIS=SPECIAL,SPHERICAL=ON                                                      
REFERENCE=RHF                                                                   
MEM_SIZE=2,MEM_UNIT=GB)                                                         
                                                                                
O:P4_CC-PVDZ                                                                    
O:P4_CC-PVDZ                                                                    
O:P4_CC-PVDZ                                                                    
O:P4_CC-PVDZ                                                                    
H:P4_CC-PVDZ                                                                    
H:P4_CC-PVDZ                                                                    
H:P4_CC-PVDZ                                                                    
H:P4_CC-PVDZ                                                                    
H:P4_CC-PVDZ                                                                    
H:P4_CC-PVDZ                                                                    
H:P4_CC-PVDZ                                                                    
H:P4_CC-PVDZ                                                                    
                                                                                
********************************************************************************
    -------------------------------------------------------------------
                    CFOUR Control Parameters 
    -------------------------------------------------------------------
        External           Internal           Value            Units
          Name               Name
    -------------------------------------------------------------------
       ABCDTYPE             IABCDT         STANDARD    [  0]    ***   
       ANHARMONIC           IANHAR         OFF         [  0]    ***   
       ANH_ALGORIT          IANALG         STANDARD    [  0]    ***   
       ANH_DERIVAT          IANDER         SECOND      [  1]    ***   
       ANH_MODE             ANHMOD         VIBRATION   [  0]    ***   
       ANH_STEPSIZ          ICUBST             50000          x 10-6  
       ANH_SYMMETR          IANHSM         ABELIAN     [  0]    ***   
       AO_LADDERS           IAOLAD         SINGLEPASS  [  1]    ***   
       AV_SCF               IAVSCF         OFF         [  0]    ***   
       BASIS                IBASIS         SPECIAL     [  0]    ***   
       BOTHVECTORS          BOTHVC         OFF         [  0]    ***   
       BOX_POTENT           IPIAB          OFF         [  0]    ***   
       BREIT                IBREIT         OFF         [  0]    ***   
       BRUCK_CONV           IBRTOL          10D-  4             ***   
       BRUECKNER            IBRKNR         OFF         [  0]    ***   
       BUFFERSIZE           IBUFFS              4096            ***   
       CACHE_RECS           ICHREC             10               ***   
       CALCLEVEL            ICLLVL         SCF         [  0]    ***   
       CCORBOPT             ICCORB         OFF         [  0]  x 0.01  
       CC_CONV              ICCCNV          10D-  7             ***   
       CC_EXPORDER          ICCEOR              0               ***   
       CC_EXTRAPOL          ICCEXT         DIIS        [  1]    ***   
       CC_GUESS             ICCGES         MP2         [  0]    ***   
       CC_MAXCYC            ICCCYC              0              cycles 
       CC_PROGRAM           ICCPRO         VCC         [  0]    ***   
       CHARGE               ICHRGE              0               ***   
       CHOLESKY             ICHOLE         OFF         [  0]    ***   
       CIS_CONV             ICISTL              5               ***   
       COMM_SIZE            IPSIZE            ***               ***   
       CONSTANT             ICONST         OLD         [  1]    ***   
       CONTINUUM            ICONTU         NONE        [  0]    ***   
       CONTRACTION          ICNTYP         GENERAL     [  1]    ***   
       COORDINATES          ICOORD         INTERNAL    [  0]    ***   
       CPHF_CONVER          ICPHFT          10D- 16             ***   
       CPHF_MAXCYC          ICPHFC             64              cycles 
       CUBIC                ICUBIC         OFF         [  0]    ***   
       CURVILINEAR          ICURVY         OFF         [  0]    ***   
       DBOC                 IDBOC          OFF         [  0]    ***   
       DCT                  IDCT           OFF         [  0]    ***   
       DERIV_LEV            IDRLVL         ZERO        [  0]    ***   
       DEVMEM_SIZE          IDVMEM         *********           MByte  
       DIAG_MRCC            IEOMST          10D-  0             ***   
       DIFF_TYPE            IDIFTY         RELAXED     [  0]    ***   
       DIRECT               IDIRCT         OFF         [  0]    ***   
       DROPMO               IDRPMO      NONE         
       ECP                  IECP           OFF         [  0]    ***   
       EIGENVECTOR          IVEC                1               ***   
       EL_ANHARM            IELANH         OFF         [  0]    ***   
       EOMFOLLOW            IEOMSR         ENERGY      [  0]    ***   
       EOMIP                IEOMIP         OFF         [  0]    ***   
       EOMLEVEL             HBARFM         SAME        [  0]    ***   
       EOM_MRCC             IMRCCE         NEW         [  1]    ***   
       EOM_NONIT            EOMNON         OFF         [  0]    ***   
       EOM_NSING            IEOMSI          10D-  0             ***   
       EOM_NSTATES          IMRCCD         DAVIDSON    [  0]    ***   
       EOM_NTRIP            IEOMTR          10D-  0             ***   
       EOM_ORDER            IEXORD         ENERGY      [  0]    ***   
       EOM_PROPSTA          IEOMST              0               ***   
       ESTATE_CONV          IEXTOL          10D-  5             ***   
       ESTATE_DIAG          IEXDIG         ITERATIVE   [  0]    ***   
       ESTATE_LOCK          IESLOC         ON          [  1]    ***   
       ESTATE_MAXC          IEXMXC             40               ***   
       ESTATE_PROP          IEXPRP         OFF         [  0]    ***   
       EVAL_HESS            IRECAL              0            # of cyc.
       EXCITATION           IEXCIT              0               ***   
       EXCITE               IEXCIT         NONE        [  0]    ***   
       EXTERN_POT           IEXPOT         OFF         [  0]    ***   
       FCGRADNEW            IFCGNW         OFF         [  0]    ***   
       FC_FIELD             IFINFC              0             x 10-6  
       FD_CALTYPE           IFDCAL         GRADONLY    [  0]    ***   
       FD_PROJECT           IFDPRJ         OFF         [  1]    ***   
       FD_STEPSIZE          IDISFD              0            10-4 bohr
       FD_USEGROUP          IFDGRP         FULL        [  0]    ***   
       FILE_RECSIZ          IFLREC              4096           words  
       FINITE_PERT          IFIPER              0             x 10-6  
       FIXGEOM              IFIXGM         OFF         [  0]    ***   
       FOCK                 IFOCK          AO          [  1]    ***   
       FREQ_ALGORI          IVIALG         STANDARD    [  0]    ***   
       FROZEN_CORE          IFROCO         OFF         [  0]    ***   
       GAMMA_ABCD           IGABCD         STORE       [  0]    ***   
       GAMMA_ABCI           IGABCI         STORE       [  0]    ***   
       GENBAS_1             IGNBS1              0               ***   
       GENBAS_2             IGNBS2              0               ***   
       GENBAS_3             IGNBS3              0               ***   
       GENBAS_4             IGNBS4              0               ***   
       GEO_CONV             ICONTL              5              H/bohr 
       GEO_MAXCYC           IOPTCY             50               ***   
       GEO_MAXSTEP          IMXSTP            300            millibohr
       GEO_METHOD           INR            SINGLE_POINT[  5]    ***   
       GIAO                 IGIAO          OFF         [  1]    ***   
       GIMIC                IGIMIC         OFF         [  0]    ***   
       GRID                 IGRID          OFF         [  0]    ***   
       GRID_ALGO            IGALGO         SERIAL      [  0]    ***   
       GUESS                IGUESS         MOREAD      [  0]    ***   
       HBAR                 IHBAR          OFF         [  0]    ***   
       HESS_TYPE            IHESTP         SCF         [  0]    ***   
       HF2_FILE             IHF2Fl         USE         [  1]    ***   
       HFSTABILITY          ISTABL         OFF         [  0]    ***   
       INCORE               INCORE         OFF         [  0]    ***   
       INPUT_MRCC           IMRCC          ON          [  1]    ***   
       INTEGRALS            INTTYP         VMOL        [  1]    ***   
       JODA_PRINT           IJPRNT              0               ***   
       KEYWORD_OUT          IDMPKW         NO          [  0]    ***   
       LINDEP_TOL           ILINDP              8               ***   
       LINEQ_CONV           IZTACN          10D-  7           cycles  
       LINEQ_EXPOR          ILMAXD              5               ***   
       LINEQ_MAXCY          ILMAXC            100               ***   
       LINEQ_TYPE           ILTYPE         DIIS        [  1]    ***   
       LOCK_ORBOCC          ILOCOC         OFF         [  0]    ***   
       MEMORY_SIZE          IMEMSZ         250000000           words  
       MEM_UNIT             IMEMU          GB          [  3]    ***   
       MRCC                 IMRCCC         OFF         [  0]    ***   
       MULTIPLICTY          IMULTP              1               ***   
       NACOUPLING           IVCOUP         OFF         [  0]    ***   
       NEGEVAL              IDIE           ABORT       [  0]    ***   
       NEWNORM              INEWNO         OFF         [  0]    ***   
       NON-HF               INONHF         OFF         [  0]    ***   
       NTOP_TAMP            ITOPT2             15               ***   
       NUC_MODEL            INUCMO         POINT       [  0]    ***   
       OCCUPATION           IOCCU   ESTIMATED BY SCF 
       OPEN-SHELL           IOPEN          SPIN-ORBITAL[  0]    ***   
       OPTVIB               IOPTVB         OFF         [  0]    ***   
       ORBITALS             IORBTP         STANDARD    [  0]    ***   
       PARALLEL             IPARAL         ON          [  1]    ***   
       PARA_INT             IPINTS         ON          [  1]    ***   
       PARA_PRINT           IPPRIN              0               ***   
       PERT_ORB             IPTORB         STANDARD    [  0]    ***   
       POINTS               IGRDFD              0               ***   
       PRINT                IPRNT               0               ***   
       PROPS                IPROPS         OFF         [  0]    ***   
       PROP_INTEGR          IINTYP         INTERNAL    [  0]    ***   
       PSI                  IPSI           OFF         [  0]    ***   
       QC_ALG               IQCALG         FLM         [  0]    ***   
       QC_LINALG            IQCLIN         TRIDIAG     [  2]    ***   
       QC_MAXCYC            IQCMAX          10D-100           cycles  
       QC_MAXSCFCY          IQCMSC          10D- 15           cycles  
       QC_RTRUST            IQCRTR          10D-  0           x 10-3  
       QC_SKIPSCF           IQCSKI         OFF         [  0]    ***   
       QC_START             IQCSTA          10D-  1             ***   
       QRHFGUESS            IQGUES         OFF         [  0]    ***   
       QUARTIC              IQUART         OFF         [  0]    ***   
       RAMAN_INT            IRAMIN         OFF         [  0]    ***   
       RAMAN_ORB            IRAMRE         UNRELAXED   [  0]    ***   
       RDO                  IRDOFM         OFF         [  0]    ***   
       REDUCE_REPR          REDREP         Ir          [  0]    ***   
       REFERENCE            IREFNC         RHF         [  0]    ***   
       RELATIVIST           IRELAT         OFF         [  0]    ***   
       RELAX_DENS           IRDENS         OFF         [  0]    ***   
       RESET_FLAGS          IRESET         OFF         [  0]    ***   
       RESTART_CC           ICCRES         OFF         [  0]    ***   
       ROT_EVEC             ROTVEC              0               ***   
       SAVE_INTS            ISVINT         OFF         [  0]    ***   
       SCALE_ON             ISTCRT              0               ***   
       SCF_CONV             ISCFCV          10D-  7             ***   
       SCF_DAMPING          IDAMP               0             x 10-3  
       SCF_EXPORDE          IRPPOR              6               ***   
       SCF_EXPSTAR          IRPPLS              8               ***   
       SCF_EXTRAPO          IRPP           ON          [  1]    ***   
       SCF_MAXCYC           ISCFCY            150              cycles 
       SCF_NOSTOP           ISCFST         OFF         [  0]    ***   
       SCF_PRINT            ISCFPR              0               ***   
       SCF_PROG             ISCFPR         SCF         [  0]    ***   
       SD_FIELD             IFINSD              0             x 10-6  
       SOPERT               IPERSO         OFF         [  0]    ***   
       SPHERICAL            IDFGHI         ON          [  1]    ***   
       SPINORBIT            ISOCAL         OFF         [  0]    ***   
       SPINROTATIO          ISRCON         OFF         [  0]    ***   
       SPIN_FLIP            ISPFLP         OFF         [  0]    ***   
       SPIN_ORBIT           ISPORB         OFF         [  0]    ***   
       SPIN_SCAL            ISCSMP         OFF         [  0]    ***   
       STEEPSCALE           ISTPSC              1000          x 10-3  
       SUBGROUP             ISUBGP         DEFAULT     [  0]    ***   
       SUBGRPAXIS           ISBXYZ         X           [  0]    ***   
       SYMMETRY             ISYM           ON          [  0]    ***   
       SYM_CHECK            ISYMCK         OVERRIDE    [  1]    ***   
       T3_EXTRAPOL          IT3EXT         OFF         [  0]    ***   
       T4_EXTRAPOL          IT4EXP         OFF         [  0]    ***   
       TAMP_SUM             IEVERY              0               ***   
       TESTSUITE            ITESTS         OFF         [  0]    ***   
       THERMOCH             ITHERM         OFF         [  0]    ***   
       TOL_CHOLESK          ITOLCH          10D-  4             ***   
       TRANGRAD             IRESRM         OFF         [  0]    ***   
       TRANS_INV            ITRAIN         USE         [  0]    ***   
       TREAT_PERT           ITREAT         SIMULTANEOUS[  0]    ***   
       TRIP_ALGORI          ITRALG         NORMAL      [  0]    ***   
       UIJ_THRESHO          IUIJTH              1               ***   
       UNITS                IUNITS         ANGSTROM    [  0]    ***   
       UNOS                 IUNOS          OFF         [  0]    ***   
       UPDATE_HESS          IHUPDT         ON          [  1]    ***   
       VIBPHASE             ISETPH         STANDARD    [  0]    ***   
       VIBRATION            IVIB           NO          [  0]    ***   
       VIB_ALGORIT          IGEALG         STANDARD    [  0]    ***   
       VNATORB              IVNORB         OFF         [  0]    ***   
       VTRAN                IVTRAN         FULL/PARTIAL[  0]    ***   
       XFIELD               IXEFLD              0             x 10-6  
       XFORM_TOL            IXFTOL          10D- 11             ***   
       YFIELD               IYEFLD              0             x 10-6  
       ZFIELD               IZEFLD              0             x 10-6  
       ZSCALE_EXP           IZEXPS         OFF         [  0]    ***   
    -------------------------------------------------------------------
  12 entries found in Z-matrix 
   Job Title : (H2O)4 in a D2h arrangement                                                     
   There are  8 unique internal coordinates.
   Of these,  0 will be optimized.
   User supplied Z-matrix: 
--------------------------------------------------------------------------------
       SYMBOL    BOND      LENGTH    ANGLE     ANGLE     DIHED     ANGLE
                  TO      (ANGST)    WRT      (DEG)      WRT      (DEG)
--------------------------------------------------------------------------------
        O    
        O          1         OO2  
        O          2         OO3        1        OOO3 
        O          1         OO3        2        OOO3       3        DIH4 
        H          4         HO5        3        HOO5       2        DIH5 
        H          4         HO5        3        HOO5       2        DIH6 
        H          3         HO5        4        HOO5       1        DIH5 
        H          3         HO5        4        HOO5       1        DIH6 
        H          1         HO5        2        HOO5       3        DIH5 
        H          1         HO5        2        HOO5       3        DIH6 
        H          2         HO5        1        HOO5       4        DIH5 
        H          2         HO5        1        HOO5       4        DIH6 
                  *Initial values for internal coordinates* 
                      Name             Value
                        OO2             5.0000000000
                        OO3             4.0000000000
                        OOO3           90.0000000000
                        DIH4            0.0000000000
                        HO5             0.9500000000
                        HOO5           52.3000000000
                        DIH5          125.0000000000
                        DIH6         -125.0000000000
--------------------------------------------------------------------------------
   Rotational constants (in cm-1): 
          0.0229938225             0.0389661831             0.0549773478
   Rotational constants (in MHz): 
        689.3375546255          1168.1769436098          1648.1796554055
********************************************************************************
   The full molecular point group is D2h .
   The largest Abelian subgroup of the full molecular point group is D2h .
   The computational point group is D2h .
********************************************************************************
--------------------------------------------------------------------------------
   Analysis of internal coordinates specified by Z-matrix 
--------------------------------------------------------------------------------
   *The nuclear repulsion energy is  101.487001574722967 a.u.
   *There are   5 degrees of freedom within the tot. symm. molecular subspace.
   *Z-matrix requests optimization of   0 coordinates.
   *The optimization is constrained.
   *The following   6 parameters can have non-zero 
    derivatives within the totally symmetric subspace:
             DIH6 [30]  HOO5 [14]  OO3  [ 2]  OO2  [ 1]  HO5  [ 7]  OOO3 [ 3]
   *The following   0 parameters are to be optimized:

   *The following coordinates must be varied in an  unconstrained optimization.
             DIH6 [30]  HOO5 [14]  OO3  [ 2]  OO2  [ 1]  HO5  [ 7]  OOO3 [ 3]
--------------------------------------------------------------------------------


 ----------------------------------------------------------------
         Coordinates used in calculation (QCOMP) 
 ----------------------------------------------------------------
 Z-matrix   Atomic            Coordinates (in bohr)
  Symbol    Number           X              Y              Z
 ----------------------------------------------------------------
     O         8        -4.72431630    -3.77945304     0.00000000
     O         8         4.72431630    -3.77945304     0.00000000
     O         8         4.72431630     3.77945304     0.00000000
     O         8        -4.72431630     3.77945304     0.00000000
     H         1        -3.62647838     4.59418183     1.16355329
     H         1        -3.62647838     4.59418183    -1.16355329
     H         1         3.62647838     4.59418183    -1.16355329
     H         1         3.62647838     4.59418183     1.16355329
     H         1        -3.62647838    -4.59418183    -1.16355329
     H         1        -3.62647838    -4.59418183     1.16355329
     H         1         3.62647838    -4.59418183     1.16355329
     H         1         3.62647838    -4.59418183    -1.16355329
 ----------------------------------------------------------------

   Interatomic distance matrix (Angstroms) 

                 O             O             O             O             H    
                [ 1]        [ 2]        [ 3]        [ 4]        [ 5]
  O    [ 1]     0.00000
  O    [ 2]     5.00000     0.00000
  O    [ 3]     6.40313     4.00000     0.00000
  O    [ 4]     4.00000     6.40313     5.00000     0.00000
  H    [ 5]     4.51127     6.28825     4.48252     0.95000     0.00000
  H    [ 6]     4.51127     6.28825     4.48252     0.95000     1.23145
  H    [ 7]     6.28825     4.51127     0.95000     4.48252     4.03082
  H    [ 8]     6.28825     4.51127     0.95000     4.48252     3.83810
  H    [ 9]     0.95000     4.48252     6.28825     4.51127     5.01579
  H    [10]     0.95000     4.48252     6.28825     4.51127     4.86227
  H    [11]     4.48252     0.95000     4.51127     6.28825     6.19457
  H    [12]     4.48252     0.95000     4.51127     6.28825     6.31579

                 H             H             H             H             H    
                [ 6]        [ 7]        [ 8]        [ 9]        [10]
  H    [ 6]     0.00000
  H    [ 7]     3.83810     0.00000
  H    [ 8]     4.03082     1.23145     0.00000
  H    [ 9]     4.86227     6.19457     6.31579     0.00000
  H    [10]     5.01579     6.31579     6.19457     1.23145     0.00000
  H    [11]     6.31579     5.01579     4.86227     4.03082     3.83810
  H    [12]     6.19457     4.86227     5.01579     3.83810     4.03082

                 H             H    
                [11]        [12]
  H    [11]     0.00000
  H    [12]     1.23145     0.00000
 rotcon2
   Rotational constants (in cm-1): 
          0.0549773478             0.0389661831             0.0229938225
   Rotational constants (in MHz): 
       1648.1796554055          1168.1769436098           689.3375546255
  ECPDATA file not present.   Using default ECPDATA. 
  There are   96 basis functions.
 @GEOPT-W, Archive file not created for single-point calculation.
 @CHECKOUT-I, Total execution time (CPU/WALL):        0.22/       0.12 seconds.
--executable xjoda finished with status     0 in        0.13 seconds (walltime).
 --invoking executable--
/home/thomas/Packages/cfour-v2.1/bin/xvmol

Running with 2 threads/proc

 SERIAL VERSION OF MOLECULE STARTED
********************************************************************************
                    INPUT FROM MOL FILE
********************************************************************************
INTGRL        1    0    1    0    0    0    0    0    0                         
         *** CFOUR Program System (Release V0.1) ***                            
(H2O)4 in a D2h arrangement                                                     
    2    3 X  Y   Z   0.10E-08              0    0                              
   9999.00      3.00                                                            
          8.00000000    1    3    1    1    1                                   
O #1  -4.724316301669144  -3.779453041335313   0.000000000000000                
    9    3                                                                      
   11720.000000000000        7.1000000000000002E-004  -1.6000000000000001E-004  
   1759.0000000000000        5.4700000000000000E-003  -1.2630000000000000E-003  
   400.80000000000001        2.7837000000000001E-002  -6.2670000000000000E-003  
   113.70000000000000       0.10480000000000000       -2.5715999999999999E-002  
   37.030000000000001       0.28306199999999998       -7.0924000000000001E-002  
   13.270000000000000       0.44871899999999998      -0.16541100000000000       
   5.0250000000000004       0.27095200000000003      -0.11695500000000000       
   1.0129999999999999        1.5458000000000000E-002  0.55736799999999997       
  0.30230000000000001        0.0000000000000000        0.0000000000000000       
    4    2                                                                      
   17.699999999999999        4.3018000000000001E-002   0.0000000000000000       
   3.8540000000000001       0.22891300000000001        0.0000000000000000       
   1.0460000000000000       0.50872799999999996        0.0000000000000000       
  0.27529999999999999        0.0000000000000000        1.0000000000000000       
    1    1                                                                      
   1.1850000000000001        1.0000000000000000                                 
          1.00000000    1    2    1    1                                        
H #2  -3.626478379021811   4.594181826229343   1.163553290181839                
    4    2                                                                      
   13.010000000000000        1.9685000000000001E-002   0.0000000000000000       
   1.9620000000000000       0.13797699999999999        0.0000000000000000       
  0.44460000000000000       0.47814800000000002        0.0000000000000000       
  0.12200000000000000        0.0000000000000000        1.0000000000000000       
    1    1                                                                      
  0.72699999999999998        1.0000000000000000                                 
FINISH                                                                          

********************************************************************************
 ONE- AND TWO-ELECTRON INTEGRALS OVER SYMMETRY-ADAPTED AOS ARE CALCULATED.

  SPHERICAL HARMONICS ARE USED.
  
  INTEGRALS LESS THAN  0.10E-13 ARE NEGLECTED.

   BASIS FUNCTION NOT NORMALIZED: 
   CENTER (AS ORDERED IN MOL FILE):   1
   ANGULAR MOMENTUM TYPE          : S
   OFFSET WITHIN ANGULAR MOMENTUM :  2
   <CHI|CHI>                      :    1.9652713231
   BASIS FUNCTION NOT NORMALIZED: 
   CENTER (AS ORDERED IN MOL FILE):   1
   ANGULAR MOMENTUM TYPE          : P
   OFFSET WITHIN ANGULAR MOMENTUM :  1
   <CHI|CHI>                      :    1.4570451039
   BASIS FUNCTION NOT NORMALIZED: 
   CENTER (AS ORDERED IN MOL FILE):   2
   ANGULAR MOMENTUM TYPE          : S
   OFFSET WITHIN ANGULAR MOMENTUM :  1
   <CHI|CHI>                      :    1.7017387041
  NUCLEAR REPULSION ENERGY :  101.4870015747 A.U.
  @MOLECU-I, ONE ELECTRON INTEGRALS (CPU/WALL):        0.01/       0.00 SECONDS.
  @TWOEL-I,      33180 INTEGRALS OF SYMMETRY TYPE  I I I I
  @TWOEL-I,     319356 INTEGRALS OF SYMMETRY TYPE  I J I J
  @TWOEL-I,     184950 INTEGRALS OF SYMMETRY TYPE  I I J J
  @TWOEL-I,     827658 INTEGRALS OF SYMMETRY TYPE  I J K L
  @TWOEL-I, TOTAL NUMBER OF 2-E INTEGRALS    1365144.
  @MOLECU-I, TWO ELECTRON INTEGRALS (CPU/WALL):        0.60/       0.49 SECONDS.
 @CHECKOUT-I, Total execution time (CPU/WALL):        0.61/       0.50 seconds.
--executable xvmol finished with status     0 in        0.50 seconds (walltime).
 --invoking executable--
/home/thomas/Packages/cfour-v2.1/bin/xvmol2ja
 @GETMEM-I,  Allocated    1907 MB of main memory.
 @CHECKOUT-I, Total execution time (CPU/WALL):        0.00/       0.00 seconds.
--executable xvmol2ja finished with status     0 in        0.00 seconds (walltime).
 --invoking executable--
/home/thomas/Packages/cfour-v2.1/bin/xvscf
  There are   96 functions in the AO basis.

  There are 8 irreducible representations.

       Irrep        # of functions
         1                 15
         2                 15
         3                 15
         4                 15
         5                  9
         6                  9
         7                  9
         8                  9


  Parameters for SCF calculation: 
        SCF reference function:  RHF  
  Maximum number of iterations:  150
     Full symmetry point group: D2h 
     Computational point group: D2h 
        Initial density matrix: MOREAD                 
     SCF convergence tolerance: 10**(- 7)
  DIIS convergence acceleration:  ON
          Latest start for DIIS:   8
                     DIIS order:   6

  Memory information:     356258 words required.
  Fock matrices are constructed from AO integral file.
 @GETMEM-I,  Allocated       2 MB of main memory.
  Initialization and symmetry analysis required      0.001 seconds.

  @INITGES-I, Occupancies from core Hamiltonian:

          Alpha population by irrep:   4    4    4    4    1    1    1    1
           Beta population by irrep:   4    4    4    4    1    1    1    1


 total no. of electrons in initial guess :   0.0000000000000000     
  --------------------------------------------------------------------
  Iteration         Total Energy            Largest Density Difference
  --------------------------------------------------------------------
       0           101.487001574722981              0.0000000000D+00
   current occupation vector 
     4  4  4  4  1  1  1  1
     4  4  4  4  1  1  1  1
       1          -275.151909762364369              0.6329529954D+00
   current occupation vector 
     4  4  4  4  1  1  1  1
     4  4  4  4  1  1  1  1
       2          -280.350249777031650              0.1748837023D+01
   current occupation vector 
     4  4  3  3  2  1  2  1
     4  4  3  3  2  1  2  1
       3          -293.387938552382423              0.1748699953D+01
   current occupation vector 
     4  4  4  4  1  1  1  1
     4  4  4  4  1  1  1  1
       4          -293.229864735913907              0.7776017751D+00
   current occupation vector 
     4  4  4  4  1  1  1  1
     4  4  4  4  1  1  1  1
       5          -298.543800271583962              0.7538186411D+00
   current occupation vector 
     4  4  4  4  1  1  1  1
     4  4  4  4  1  1  1  1
       6          -301.627630156292810              0.2624694780D+00
   current occupation vector 
     4  4  4  4  1  1  1  1
     4  4  4  4  1  1  1  1
       7          -303.117295955219447              0.2067445075D+00
   current occupation vector 
     4  4  4  4  1  1  1  1
     4  4  4  4  1  1  1  1
       8          -303.691253926893182              0.9791008702D-01
   current occupation vector 
     4  4  4  4  1  1  1  1
     4  4  4  4  1  1  1  1
       9          -304.030989141430041              0.4323354676D-01
   current occupation vector 
     4  4  4  4  1  1  1  1
     4  4  4  4  1  1  1  1
      10          -304.031133560089870              0.8361682579D-03
   current occupation vector 
     4  4  4  4  1  1  1  1
     4  4  4  4  1  1  1  1
      11          -304.031144810138585              0.2539640009D-03
   current occupation vector 
     4  4  4  4  1  1  1  1
     4  4  4  4  1  1  1  1
      12          -304.031146129313981              0.1240665893D-03
   current occupation vector 
     4  4  4  4  1  1  1  1
     4  4  4  4  1  1  1  1
      13          -304.031146198270790              0.2461355987D-04
   current occupation vector 
     4  4  4  4  1  1  1  1
     4  4  4  4  1  1  1  1
      14          -304.031146202043487              0.6171396219D-05
   current occupation vector 
     4  4  4  4  1  1  1  1
     4  4  4  4  1  1  1  1
      15          -304.031146202270691              0.1728747477D-05
   current occupation vector 
     4  4  4  4  1  1  1  1
     4  4  4  4  1  1  1  1
      16          -304.031146202278023              0.2700339463D-06
   current occupation vector 
     4  4  4  4  1  1  1  1
     4  4  4  4  1  1  1  1

  SCF has converged.

 Density matrix saved to file den.dat
 total electron number:   40.000000000000071     
     E(SCF)=      -304.031146202277569              0.2954943229D-07

  Eigenvector printing suppressed.

 @PUTMOS-I, Writing converged MOs to NEWMOS. 
 @PUTMOS-I, Symmetry   1 Full Blocks  3 Partial Blocksize   3
 @PUTMOS-I, Symmetry   2 Full Blocks  3 Partial Blocksize   3
 @PUTMOS-I, Symmetry   3 Full Blocks  3 Partial Blocksize   3
 @PUTMOS-I, Symmetry   4 Full Blocks  3 Partial Blocksize   3
 @PUTMOS-I, Symmetry   5 Full Blocks  2 Partial Blocksize   1
 @PUTMOS-I, Symmetry   6 Full Blocks  2 Partial Blocksize   1
 @PUTMOS-I, Symmetry   7 Full Blocks  2 Partial Blocksize   1
 @PUTMOS-I, Symmetry   8 Full Blocks  2 Partial Blocksize   1
 @PUTFOCK-I, Writing converged Fock matrix to NEWFOCK. 
 @PUTFOCK-I, Symmetry   1 Full Blocks  3 Partial Blocksize   3
 @PUTFOCK-I, Symmetry   2 Full Blocks  3 Partial Blocksize   3
 @PUTFOCK-I, Symmetry   3 Full Blocks  3 Partial Blocksize   3
 @PUTFOCK-I, Symmetry   4 Full Blocks  3 Partial Blocksize   3
 @PUTFOCK-I, Symmetry   5 Full Blocks  2 Partial Blocksize   1
 @PUTFOCK-I, Symmetry   6 Full Blocks  2 Partial Blocksize   1
 @PUTFOCK-I, Symmetry   7 Full Blocks  2 Partial Blocksize   1
 @PUTFOCK-I, Symmetry   8 Full Blocks  2 Partial Blocksize   1



  ORBITAL EIGENVALUES (ALPHA)  (1H = 27.2113834 eV)

       MO #        E(hartree)               E(eV)           FULLSYM    COMPSYM
       ----   --------------------   --------------------   -------   ---------
    1    46         -20.5607452160        -559.4863210617               B1g (4)
    2    16         -20.5607451399        -559.4863189922               B2u (2)
    3    31         -20.5607447545        -559.4863085047               B3u (3)
    4     1         -20.5607446764        -559.4863063779                Ag (1)
    5     2          -1.3635870019         -37.1050887082      Ag        Ag (1)
    6    17          -1.3635399799         -37.1038091735     B2u       B2u (2)
    7    32          -1.3634829717         -37.1022579032     B3u       B3u (3)
    8    47          -1.3634377580         -37.1010275760     B1g       B1g (4)
    9    61          -0.6513928715         -17.7253011716     B1u       B1u (5)
   10    79          -0.6511993708         -17.7200357487     B2g       B2g (7)
   11    70          -0.6510962122         -17.7172286591     B3g       B3g (6)
   12    88          -0.6509069741         -17.7120792311      Au        Au (8)
   13     3          -0.6184473882         -16.8288089934      Ag        Ag (1)
   14    18          -0.6178658746         -16.8129852026     B2u       B2u (2)
   15    33          -0.6176394082         -16.8068227400     B3u       B3u (3)
   16    48          -0.6170163946         -16.7898696781     B1g       B1g (4)
   17     4          -0.5027882540         -13.6815639485      Ag        Ag (1)
   18    19          -0.5026878979         -13.6788331203     B2u       B2u (2)
   19    34          -0.5006233360         -13.6226535342     B3u       B3u (3)
   20    49          -0.5005880754         -13.6216940445     B1g       B1g (4)
  +++++++++++++++++++++++++++++++++++++++++++++++++++++++++++++++++++++++++++++
   21     5           0.1377090292           3.7472531901      Ag        Ag (1)
   22    35           0.1486384824           4.0446587320     B3u       B3u (3)
   23    20           0.2012804318           5.4771190006     B2u       B2u (2)
   24    50           0.2128966147           5.7932114079     B1g       B1g (4)
   25    62           0.2313236232           6.2946358007     B1u       B1u (5)
   26    80           0.2367627254           6.4426412944     B2g       B2g (7)
   27    71           0.2777995524           7.5593101275     B3g       B3g (6)
   28    89           0.2828339430           7.6963028603      Au        Au (8)
   29    63           0.7295180233          19.8511946297     B1u       B1u (5)
   30    81           0.7360927020          20.0301007322     B2g       B2g (7)
   31    72           0.7416991642          20.1826603244     B3g       B3g (6)
   32    90           0.7493480536          20.3907971865      Au        Au (8)
   33     6           0.8865103456          24.1231729026      Ag        Ag (1)
   34    36           0.8966402811          24.3988224597     B3u       B3u (3)
   35    21           0.9347377771          25.4355080318     B2u       B2u (2)
   36    51           0.9490020781          25.8236593952     B1g       B1g (4)
   37     7           1.1781292077          32.0585255661      Ag        Ag (1)
   38    22           1.1790241246          32.0828774931     B2u       B2u (2)
   39     8           1.1919231510          32.4338778449      Ag        Ag (1)
   40    23           1.1934483006          32.4753792746     B2u       B2u (2)
   41    37           1.1952248668          32.5237220986     B3u       B3u (3)
   42    52           1.1977693658          32.5929614363     B1g       B1g (4)
   43    38           1.2135667114          33.0228290652     B3u       B3u (3)
   44    53           1.2136672479          33.0255648013     B1g       B1g (4)
   45    82           1.2612389200          34.3200558102     B2g       B2g (7)
   46    64           1.2616558104          34.3313999761     B1u       B1u (5)
   47    39           1.2729607480          34.6390229658     B3u       B3u (3)
   48     9           1.2729731290          34.6393598707      Ag        Ag (1)
   49    24           1.2765084697          34.7355613811     B2u       B2u (2)
   50    54           1.2766981278          34.7407222407     B1g       B1g (4)
   51    91           1.2978187848          35.3154445367      Au        Au (8)
   52    73           1.2986892689          35.3391316134     B3g       B3g (6)
   53    10           1.5143573481          41.2077584029      Ag        Ag (1)
   54    25           1.5145436008          41.2128265982     B2u       B2u (2)
   55    55           1.5224762697          41.4286854926     B1g       B1g (4)
   56    40           1.5226255582          41.4327478389     B3u       B3u (3)
   57    83           1.5802387115          43.0004814411     B2g       B2g (7)
   58    65           1.5802607716          43.0010817275               B1u (5)
   59    74           1.5802634986          43.0011559343               B3g (6)
   60    92           1.5802969307          43.0020656679      Au        Au (8)
   61    41           1.8146512968          49.3791721744     B3u       B3u (3)
   62    11           1.8171970661          49.4484460800      Ag        Ag (1)
   63    56           1.8595511124          50.6009582727     B1g       B1g (4)
   64    26           1.8611732328          50.6450984110     B2u       B2u (2)
   65    75           2.0769242362          56.5159816834     B3g       B3g (6)
   66    93           2.0770783029          56.5201740518      Au        Au (8)
   67    66           2.0780892362          56.5476829444     B1u       B1u (5)
   68    84           2.0782525278          56.5521263366     B2g       B2g (7)
   69    67           2.4834291430          67.5775425580     B1u       B1u (5)
   70    85           2.4859823917          67.6470199859     B2g       B2g (7)
   71    76           2.4920626556          67.8124723775     B3g       B3g (6)
   72    94           2.4951274132          67.8958686719      Au        Au (8)
   73    12           2.5645111740          69.7838967902      Ag        Ag (1)
   74    42           2.5651020450          69.7999752053     B3u       B3u (3)
   75    27           2.5748594607          70.0654879873     B2u       B2u (2)
   76    57           2.5759113948          70.0941125670     B1g       B1g (4)
   77    68           3.2619998734          88.7635292061               B1u (5)
   78    95           3.2620024327          88.7635988475                Au (8)
   79    86           3.2620040586          88.7636430919               B2g (7)
   80    77           3.2620087554          88.7637708980               B3g (6)
   81    13           3.3718568459          91.7528894024      Ag        Ag (1)
   82    43           3.3719017177          91.7541104263     B3u       B3u (3)
   83    28           3.3726227589          91.7737309572     B2u       B2u (2)
   84    58           3.3727097085          91.7760969754     B1g       B1g (4)
   85    14           3.3805870386          91.9904500254      Ag        Ag (1)
   86    29           3.3807070006          91.9937143569     B2u       B2u (2)
   87    59           3.3838086838          92.0781154462     B1g       B1g (4)
   88    44           3.3838219980          92.0784777438     B3u       B3u (3)
   89    15           3.8479712055         104.7086197837      Ag        Ag (1)
   90    30           3.8598058992         105.0306581724     B2u       B2u (2)
   91    45           3.8605696265         105.0514402501     B3u       B3u (3)
   92    60           3.8743476750         105.4263600106     B1g       B1g (4)
   93    69           4.2221729681         114.8911674160     B1u       B1u (5)
   94    87           4.2224790354         114.8994959320     B2g       B2g (7)
   95    96           4.2354389109         115.2521520707      Au        Au (8)
   96    78           4.2354910982         115.2535721614     B3g       B3g (6)


  VSCF finished.

 @CHECKOUT-I, Total execution time (CPU/WALL):        0.15/       0.08 seconds.
--executable xvscf finished with status     0 in        0.08 seconds (walltime).
  The final electronic energy is      -304.031146202277569 a.u. 
  This computation required                            0.72 seconds (walltime).
