Basis is CC-PVDZ
Core-guess
 --invoking executable--
/home/thomas/Packages/cfour-v2.1/bin/xjoda


   *************************************************************************
         <<<     CCCCCC     CCCCCC   |||     CCCCCC     CCCCCC   >>>
       <<<      CCC        CCC       |||    CCC        CCC         >>>
      <<<      CCC        CCC        |||   CCC        CCC            >>>
    <<<        CCC        CCC        |||   CCC        CCC              >>>
      <<<      CCC        CCC        |||   CCC        CCC            >>>
       <<<      CCC        CCC       |||    CCC        CCC         >>>
         <<<     CCCCCC     CCCCCC   |||     CCCCCC     CCCCCC   >>>
   *************************************************************************

     ****************************************************************
     * CFOUR Coupled-Cluster techniques for Computational Chemistry *
     ****************************************************************


   Department of Chemistry                Institut fuer Physikalische Chemie
   University of Florida                  Universitaet Mainz
   Gainesville, FL 32611, USA             D-55099 Mainz, Germany

   Department of Chemistry                Department of Chemistry
   Johns Hopkins University               Southern Methodist University
   Baltimore, MD 21218, USA               Dallas, TX 75275, USA

   Institute of Nanotechnology            Department of Physical Chemistry
   Karlsruhe Inst. of Technology          Eotvos Lorand University
   D-76021 Karlsruhe, Germany             H-1053 Budapest, Hungary


                       Version 2.1

                     laptop21                                          
                     Wed 12 Jan 2022 08:58:11 PM CST                   
                     integer*8 version is running

********************************************************************************
*                          Input from ZMAT file                                *
********************************************************************************
Hydrazine C2h                                                                   
N                                                                               
N 1 NN2                                                                         
H 2 HN3 1 HNN3                                                                  
H 2 HN3 1 HNN3 3 DIH4                                                           
H 1 HN3 2 HNN3 3 DIH5                                                           
H 1 HN3 2 HNN3 4 DIH5                                                           
                                                                                
NN2=1.420000                                                                    
HN3=1.030000                                                                    
HNN3=109.471                                                                    
DIH4=115.000                                                                    
DIH5=180.000                                                                    
                                                                                
*CFOUR(CALC=SCF                                                                 
BASIS=SPECIAL,SPHERICAL=ON                                                      
REFERENCE=RHF                                                                   
OCCUPATION=4-1-3-1                                                              
MEM_SIZE=2,MEM_UNIT=GB)                                                         
                                                                                
N:P4_CC-PVDZ                                                                    
N:P4_CC-PVDZ                                                                    
H:P4_CC-PVDZ                                                                    
H:P4_CC-PVDZ                                                                    
H:P4_CC-PVDZ                                                                    
H:P4_CC-PVDZ                                                                    
                                                                                
********************************************************************************
    -------------------------------------------------------------------
                    CFOUR Control Parameters 
    -------------------------------------------------------------------
        External           Internal           Value            Units
          Name               Name
    -------------------------------------------------------------------
       ABCDTYPE             IABCDT         STANDARD    [  0]    ***   
       ANHARMONIC           IANHAR         OFF         [  0]    ***   
       ANH_ALGORIT          IANALG         STANDARD    [  0]    ***   
       ANH_DERIVAT          IANDER         SECOND      [  1]    ***   
       ANH_MODE             ANHMOD         VIBRATION   [  0]    ***   
       ANH_STEPSIZ          ICUBST             50000          x 10-6  
       ANH_SYMMETR          IANHSM         ABELIAN     [  0]    ***   
       AO_LADDERS           IAOLAD         SINGLEPASS  [  1]    ***   
       AV_SCF               IAVSCF         OFF         [  0]    ***   
       BASIS                IBASIS         SPECIAL     [  0]    ***   
       BOTHVECTORS          BOTHVC         OFF         [  0]    ***   
       BOX_POTENT           IPIAB          OFF         [  0]    ***   
       BREIT                IBREIT         OFF         [  0]    ***   
       BRUCK_CONV           IBRTOL          10D-  4             ***   
       BRUECKNER            IBRKNR         OFF         [  0]    ***   
       BUFFERSIZE           IBUFFS              4096            ***   
       CACHE_RECS           ICHREC             10               ***   
       CALCLEVEL            ICLLVL         SCF         [  0]    ***   
       CCORBOPT             ICCORB         OFF         [  0]  x 0.01  
       CC_CONV              ICCCNV          10D-  7             ***   
       CC_EXPORDER          ICCEOR              0               ***   
       CC_EXTRAPOL          ICCEXT         DIIS        [  1]    ***   
       CC_GUESS             ICCGES         MP2         [  0]    ***   
       CC_MAXCYC            ICCCYC              0              cycles 
       CC_PROGRAM           ICCPRO         VCC         [  0]    ***   
       CHARGE               ICHRGE              0               ***   
       CHOLESKY             ICHOLE         OFF         [  0]    ***   
       CIS_CONV             ICISTL              5               ***   
       COMM_SIZE            IPSIZE            ***               ***   
       CONSTANT             ICONST         OLD         [  1]    ***   
       CONTINUUM            ICONTU         NONE        [  0]    ***   
       CONTRACTION          ICNTYP         GENERAL     [  1]    ***   
       COORDINATES          ICOORD         INTERNAL    [  0]    ***   
       CPHF_CONVER          ICPHFT          10D- 16             ***   
       CPHF_MAXCYC          ICPHFC             64              cycles 
       CUBIC                ICUBIC         OFF         [  0]    ***   
       CURVILINEAR          ICURVY         OFF         [  0]    ***   
       DBOC                 IDBOC          OFF         [  0]    ***   
       DCT                  IDCT           OFF         [  0]    ***   
       DERIV_LEV            IDRLVL         ZERO        [  0]    ***   
       DEVMEM_SIZE          IDVMEM         *********           MByte  
       DIAG_MRCC            IEOMST          10D-  0             ***   
       DIFF_TYPE            IDIFTY         RELAXED     [  0]    ***   
       DIRECT               IDIRCT         OFF         [  0]    ***   
       DROPMO               IDRPMO      NONE         
       ECP                  IECP           OFF         [  0]    ***   
       EIGENVECTOR          IVEC                1               ***   
       EL_ANHARM            IELANH         OFF         [  0]    ***   
       EOMFOLLOW            IEOMSR         ENERGY      [  0]    ***   
       EOMIP                IEOMIP         OFF         [  0]    ***   
       EOMLEVEL             HBARFM         SAME        [  0]    ***   
       EOM_MRCC             IMRCCE         NEW         [  1]    ***   
       EOM_NONIT            EOMNON         OFF         [  0]    ***   
       EOM_NSING            IEOMSI          10D-  0             ***   
       EOM_NSTATES          IMRCCD         DAVIDSON    [  0]    ***   
       EOM_NTRIP            IEOMTR          10D-  0             ***   
       EOM_ORDER            IEXORD         ENERGY      [  0]    ***   
       EOM_PROPSTA          IEOMST              0               ***   
       ESTATE_CONV          IEXTOL          10D-  5             ***   
       ESTATE_DIAG          IEXDIG         ITERATIVE   [  0]    ***   
       ESTATE_LOCK          IESLOC         ON          [  1]    ***   
       ESTATE_MAXC          IEXMXC             40               ***   
       ESTATE_PROP          IEXPRP         OFF         [  0]    ***   
       EVAL_HESS            IRECAL              0            # of cyc.
       EXCITATION           IEXCIT              0               ***   
       EXCITE               IEXCIT         NONE        [  0]    ***   
       EXTERN_POT           IEXPOT         OFF         [  0]    ***   
       FCGRADNEW            IFCGNW         OFF         [  0]    ***   
       FC_FIELD             IFINFC              0             x 10-6  
       FD_CALTYPE           IFDCAL         GRADONLY    [  0]    ***   
       FD_PROJECT           IFDPRJ         OFF         [  1]    ***   
       FD_STEPSIZE          IDISFD              0            10-4 bohr
       FD_USEGROUP          IFDGRP         FULL        [  0]    ***   
       FILE_RECSIZ          IFLREC              4096           words  
       FINITE_PERT          IFIPER              0             x 10-6  
       FIXGEOM              IFIXGM         OFF         [  0]    ***   
       FOCK                 IFOCK          AO          [  1]    ***   
       FREQ_ALGORI          IVIALG         STANDARD    [  0]    ***   
       FROZEN_CORE          IFROCO         OFF         [  0]    ***   
       GAMMA_ABCD           IGABCD         STORE       [  0]    ***   
       GAMMA_ABCI           IGABCI         STORE       [  0]    ***   
       GENBAS_1             IGNBS1              0               ***   
       GENBAS_2             IGNBS2              0               ***   
       GENBAS_3             IGNBS3              0               ***   
       GENBAS_4             IGNBS4              0               ***   
       GEO_CONV             ICONTL              5              H/bohr 
       GEO_MAXCYC           IOPTCY             50               ***   
       GEO_MAXSTEP          IMXSTP            300            millibohr
       GEO_METHOD           INR            SINGLE_POINT[  5]    ***   
       GIAO                 IGIAO          OFF         [  1]    ***   
       GIMIC                IGIMIC         OFF         [  0]    ***   
       GRID                 IGRID          OFF         [  0]    ***   
       GRID_ALGO            IGALGO         SERIAL      [  0]    ***   
       GUESS                IGUESS         MOREAD      [  0]    ***   
       HBAR                 IHBAR          OFF         [  0]    ***   
       HESS_TYPE            IHESTP         SCF         [  0]    ***   
       HF2_FILE             IHF2Fl         USE         [  1]    ***   
       HFSTABILITY          ISTABL         OFF         [  0]    ***   
       INCORE               INCORE         OFF         [  0]    ***   
       INPUT_MRCC           IMRCC          ON          [  1]    ***   
       INTEGRALS            INTTYP         VMOL        [  1]    ***   
       JODA_PRINT           IJPRNT              0               ***   
       KEYWORD_OUT          IDMPKW         NO          [  0]    ***   
       LINDEP_TOL           ILINDP              8               ***   
       LINEQ_CONV           IZTACN          10D-  7           cycles  
       LINEQ_EXPOR          ILMAXD              5               ***   
       LINEQ_MAXCY          ILMAXC            100               ***   
       LINEQ_TYPE           ILTYPE         DIIS        [  1]    ***   
       LOCK_ORBOCC          ILOCOC         OFF         [  0]    ***   
       MEMORY_SIZE          IMEMSZ         250000000           words  
       MEM_UNIT             IMEMU          GB          [  3]    ***   
       MRCC                 IMRCCC         OFF         [  0]    ***   
       MULTIPLICTY          IMULTP              1               ***   
       NACOUPLING           IVCOUP         OFF         [  0]    ***   
       NEGEVAL              IDIE           ABORT       [  0]    ***   
       NEWNORM              INEWNO         OFF         [  0]    ***   
       NON-HF               INONHF         OFF         [  0]    ***   
       NTOP_TAMP            ITOPT2             15               ***   
       NUC_MODEL            INUCMO         POINT       [  0]    ***   
       OCCUPATION           IOCCU    4,  1,  3,  1,
       OPEN-SHELL           IOPEN          SPIN-ORBITAL[  0]    ***   
       OPTVIB               IOPTVB         OFF         [  0]    ***   
       ORBITALS             IORBTP         STANDARD    [  0]    ***   
       PARALLEL             IPARAL         ON          [  1]    ***   
       PARA_INT             IPINTS         ON          [  1]    ***   
       PARA_PRINT           IPPRIN              0               ***   
       PERT_ORB             IPTORB         STANDARD    [  0]    ***   
       POINTS               IGRDFD              0               ***   
       PRINT                IPRNT               0               ***   
       PROPS                IPROPS         OFF         [  0]    ***   
       PROP_INTEGR          IINTYP         INTERNAL    [  0]    ***   
       PSI                  IPSI           OFF         [  0]    ***   
       QC_ALG               IQCALG         FLM         [  0]    ***   
       QC_LINALG            IQCLIN         TRIDIAG     [  2]    ***   
       QC_MAXCYC            IQCMAX          10D-100           cycles  
       QC_MAXSCFCY          IQCMSC          10D- 15           cycles  
       QC_RTRUST            IQCRTR          10D-  0           x 10-3  
       QC_SKIPSCF           IQCSKI         OFF         [  0]    ***   
       QC_START             IQCSTA          10D-  1             ***   
       QRHFGUESS            IQGUES         OFF         [  0]    ***   
       QUARTIC              IQUART         OFF         [  0]    ***   
       RAMAN_INT            IRAMIN         OFF         [  0]    ***   
       RAMAN_ORB            IRAMRE         UNRELAXED   [  0]    ***   
       RDO                  IRDOFM         OFF         [  0]    ***   
       REDUCE_REPR          REDREP         Ir          [  0]    ***   
       REFERENCE            IREFNC         RHF         [  0]    ***   
       RELATIVIST           IRELAT         OFF         [  0]    ***   
       RELAX_DENS           IRDENS         OFF         [  0]    ***   
       RESET_FLAGS          IRESET         OFF         [  0]    ***   
       RESTART_CC           ICCRES         OFF         [  0]    ***   
       ROT_EVEC             ROTVEC              0               ***   
       SAVE_INTS            ISVINT         OFF         [  0]    ***   
       SCALE_ON             ISTCRT              0               ***   
       SCF_CONV             ISCFCV          10D-  7             ***   
       SCF_DAMPING          IDAMP               0             x 10-3  
       SCF_EXPORDE          IRPPOR              6               ***   
       SCF_EXPSTAR          IRPPLS              8               ***   
       SCF_EXTRAPO          IRPP           ON          [  1]    ***   
       SCF_MAXCYC           ISCFCY            150              cycles 
       SCF_NOSTOP           ISCFST         OFF         [  0]    ***   
       SCF_PRINT            ISCFPR              0               ***   
       SCF_PROG             ISCFPR         SCF         [  0]    ***   
       SD_FIELD             IFINSD              0             x 10-6  
       SOPERT               IPERSO         OFF         [  0]    ***   
       SPHERICAL            IDFGHI         ON          [  1]    ***   
       SPINORBIT            ISOCAL         OFF         [  0]    ***   
       SPINROTATIO          ISRCON         OFF         [  0]    ***   
       SPIN_FLIP            ISPFLP         OFF         [  0]    ***   
       SPIN_ORBIT           ISPORB         OFF         [  0]    ***   
       SPIN_SCAL            ISCSMP         OFF         [  0]    ***   
       STEEPSCALE           ISTPSC              1000          x 10-3  
       SUBGROUP             ISUBGP         DEFAULT     [  0]    ***   
       SUBGRPAXIS           ISBXYZ         X           [  0]    ***   
       SYMMETRY             ISYM           ON          [  0]    ***   
       SYM_CHECK            ISYMCK         OVERRIDE    [  1]    ***   
       T3_EXTRAPOL          IT3EXT         OFF         [  0]    ***   
       T4_EXTRAPOL          IT4EXP         OFF         [  0]    ***   
       TAMP_SUM             IEVERY              0               ***   
       TESTSUITE            ITESTS         OFF         [  0]    ***   
       THERMOCH             ITHERM         OFF         [  0]    ***   
       TOL_CHOLESK          ITOLCH          10D-  4             ***   
       TRANGRAD             IRESRM         OFF         [  0]    ***   
       TRANS_INV            ITRAIN         USE         [  0]    ***   
       TREAT_PERT           ITREAT         SIMULTANEOUS[  0]    ***   
       TRIP_ALGORI          ITRALG         NORMAL      [  0]    ***   
       UIJ_THRESHO          IUIJTH              1               ***   
       UNITS                IUNITS         ANGSTROM    [  0]    ***   
       UNOS                 IUNOS          OFF         [  0]    ***   
       UPDATE_HESS          IHUPDT         ON          [  1]    ***   
       VIBPHASE             ISETPH         STANDARD    [  0]    ***   
       VIBRATION            IVIB           NO          [  0]    ***   
       VIB_ALGORIT          IGEALG         STANDARD    [  0]    ***   
       VNATORB              IVNORB         OFF         [  0]    ***   
       VTRAN                IVTRAN         FULL/PARTIAL[  0]    ***   
       XFIELD               IXEFLD              0             x 10-6  
       XFORM_TOL            IXFTOL          10D- 11             ***   
       YFIELD               IYEFLD              0             x 10-6  
       ZFIELD               IZEFLD              0             x 10-6  
       ZSCALE_EXP           IZEXPS         OFF         [  0]    ***   
    -------------------------------------------------------------------
   6 entries found in Z-matrix 
   Job Title : Hydrazine C2h                                                                   
   There are  5 unique internal coordinates.
   Of these,  0 will be optimized.
   User supplied Z-matrix: 
--------------------------------------------------------------------------------
       SYMBOL    BOND      LENGTH    ANGLE     ANGLE     DIHED     ANGLE
                  TO      (ANGST)    WRT      (DEG)      WRT      (DEG)
--------------------------------------------------------------------------------
        N    
        N          1         NN2  
        H          2         HN3        1        HNN3 
        H          2         HN3        1        HNN3       3        DIH4 
        H          1         HN3        2        HNN3       3        DIH5 
        H          1         HN3        2        HNN3       4        DIH5 
                  *Initial values for internal coordinates* 
                      Name             Value
                        NN2             1.4200000000
                        HN3             1.0300000000
                        HNN3          109.4710000000
                        DIH4          115.0000000000
                        DIH5          180.0000000000
--------------------------------------------------------------------------------
   Rotational constants (in cm-1): 
          0.7814946272             0.8562331781             4.7818103446
   Rotational constants (in MHz): 
      23428.6228011569         25669.2285055773        143355.0877738650
********************************************************************************
   The full molecular point group is C2h .
   The largest Abelian subgroup of the full molecular point group is C2h .
   The computational point group is C2h .
********************************************************************************
--------------------------------------------------------------------------------
   Analysis of internal coordinates specified by Z-matrix 
--------------------------------------------------------------------------------
   *The nuclear repulsion energy is   41.471860963754686 a.u.
   *There are   4 degrees of freedom within the tot. symm. molecular subspace.
   *Z-matrix requests optimization of   0 coordinates.
   *The optimization is constrained.
   *The following   5 parameters can have non-zero 
    derivatives within the totally symmetric subspace:
             DIH5 [12]  DIH4 [ 6]  HNN3 [ 8]  HN3  [ 2]  NN2  [ 1]
   *The following   0 parameters are to be optimized:

   *The following coordinates must be varied in an  unconstrained optimization.
             DIH5 [12]  DIH4 [ 6]  HNN3 [ 8]  HN3  [ 2]  NN2  [ 1]
--------------------------------------------------------------------------------


 ----------------------------------------------------------------
         Coordinates used in calculation (QCOMP) 
 ----------------------------------------------------------------
 Z-matrix   Atomic            Coordinates (in bohr)
  Symbol    Number           X              Y              Z
 ----------------------------------------------------------------
     N         7         0.16600540    -1.33139654    -0.00000000
     N         7        -0.16600540     1.33139654    -0.00000000
     H         1         0.73214469     2.09720536     1.54771041
     H         1         0.73214469     2.09720536    -1.54771041
     H         1        -0.73214469    -2.09720536    -1.54771041
     H         1        -0.73214469    -2.09720536     1.54771041
 ----------------------------------------------------------------

   Interatomic distance matrix (Angstroms) 

                 N             N             H             H             H    
                [ 1]        [ 2]        [ 3]        [ 4]        [ 5]
  N    [ 1]     0.00000
  N    [ 2]     1.42000     0.00000
  H    [ 3]     2.01305     1.03000     0.00000
  H    [ 4]     2.01305     1.03000     1.63803     0.00000
  H    [ 5]     1.03000     2.01305     2.86533     2.35095     0.00000
  H    [ 6]     1.03000     2.01305     2.35095     2.86533     1.63803

                 H    
                [ 6]
  H    [ 6]     0.00000
 rotcon2
   Rotational constants (in cm-1): 
          0.7814946272             4.7818103446             0.8562331781
   Rotational constants (in MHz): 
      23428.6228011569        143355.0877738650         25669.2285055773
  ECPDATA file not present.   Using default ECPDATA. 
  There are   48 basis functions.
 @GEOPT-W, Archive file not created for single-point calculation.
 @CHECKOUT-I, Total execution time (CPU/WALL):        0.22/       0.11 seconds.
--executable xjoda finished with status     0 in        0.12 seconds (walltime).
 --invoking executable--
/home/thomas/Packages/cfour-v2.1/bin/xvmol

Running with 2 threads/proc

 SERIAL VERSION OF MOLECULE STARTED
********************************************************************************
                    INPUT FROM MOL FILE
********************************************************************************
INTGRL        1    0    1    0    0    0    0    0    0                         
         *** CFOUR Program System (Release V0.1) ***                            
Hydrazine C2h                                                                   
    2    2 Z  XY      0.10E-08              0    0                              
   9999.00      3.00                                                            
          7.00000000    1    3    1    1    1                                   
N #1   0.166005397421924  -1.331396538003641  -0.000000000000000                
    9    3                                                                      
   9046.0000000000000        6.9999999999999999E-004  -1.5300000000000001E-004  
   1357.0000000000000        5.3889999999999997E-003  -1.2080000000000001E-003  
   309.30000000000001        2.7406000000000000E-002  -5.9919999999999999E-003  
   87.730000000000004       0.10320699999999999       -2.4544000000000000E-002  
   28.559999999999999       0.27872300000000000       -6.7459000000000005E-002  
   10.210000000000001       0.44853999999999999      -0.15807800000000000       
   3.8380000000000001       0.27823799999999999      -0.12183099999999999       
  0.74660000000000004        1.5440000000000001E-002  0.54900300000000002       
  0.22480000000000000        0.0000000000000000        0.0000000000000000       
    4    2                                                                      
   13.550000000000001        3.9919000000000003E-002   0.0000000000000000       
   2.9169999999999998       0.21716900000000000        0.0000000000000000       
  0.79730000000000001       0.51031899999999997        0.0000000000000000       
  0.21850000000000000        0.0000000000000000        1.0000000000000000       
    1    1                                                                      
  0.81699999999999995        1.0000000000000000                                 
          1.00000000    1    2    1    1                                        
H #2   0.732144693239539   2.097205360780984   1.547710413346558                
    4    2                                                                      
   13.010000000000000        1.9685000000000001E-002   0.0000000000000000       
   1.9620000000000000       0.13797699999999999        0.0000000000000000       
  0.44460000000000000       0.47814800000000002        0.0000000000000000       
  0.12200000000000000        0.0000000000000000        1.0000000000000000       
    1    1                                                                      
  0.72699999999999998        1.0000000000000000                                 
FINISH                                                                          

********************************************************************************
 ONE- AND TWO-ELECTRON INTEGRALS OVER SYMMETRY-ADAPTED AOS ARE CALCULATED.

  SPHERICAL HARMONICS ARE USED.
  
  INTEGRALS LESS THAN  0.10E-13 ARE NEGLECTED.

   BASIS FUNCTION NOT NORMALIZED: 
   CENTER (AS ORDERED IN MOL FILE):   1
   ANGULAR MOMENTUM TYPE          : S
   OFFSET WITHIN ANGULAR MOMENTUM :  2
   <CHI|CHI>                      :    1.9933993200
   BASIS FUNCTION NOT NORMALIZED: 
   CENTER (AS ORDERED IN MOL FILE):   1
   ANGULAR MOMENTUM TYPE          : P
   OFFSET WITHIN ANGULAR MOMENTUM :  1
   <CHI|CHI>                      :    1.4756300702
   BASIS FUNCTION NOT NORMALIZED: 
   CENTER (AS ORDERED IN MOL FILE):   2
   ANGULAR MOMENTUM TYPE          : S
   OFFSET WITHIN ANGULAR MOMENTUM :  1
   <CHI|CHI>                      :    1.7017387041
  NUCLEAR REPULSION ENERGY :   41.4718609638 A.U.
  @MOLECU-I, ONE ELECTRON INTEGRALS (CPU/WALL):        0.00/       0.00 SECONDS.
  @TWOEL-I,      16590 INTEGRALS OF SYMMETRY TYPE  I I I I
  @TWOEL-I,      65466 INTEGRALS OF SYMMETRY TYPE  I J I J
  @TWOEL-I,      38025 INTEGRALS OF SYMMETRY TYPE  I I J J
  @TWOEL-I,      54675 INTEGRALS OF SYMMETRY TYPE  I J K L
  @TWOEL-I, TOTAL NUMBER OF 2-E INTEGRALS     174756.
  @MOLECU-I, TWO ELECTRON INTEGRALS (CPU/WALL):        0.14/       0.07 SECONDS.
 @CHECKOUT-I, Total execution time (CPU/WALL):        0.14/       0.07 seconds.
--executable xvmol finished with status     0 in        0.07 seconds (walltime).
 --invoking executable--
/home/thomas/Packages/cfour-v2.1/bin/xvmol2ja
 @GETMEM-I,  Allocated    1907 MB of main memory.
 @CHECKOUT-I, Total execution time (CPU/WALL):        0.00/       0.00 seconds.
--executable xvmol2ja finished with status     0 in        0.00 seconds (walltime).
 --invoking executable--
/home/thomas/Packages/cfour-v2.1/bin/xvscf
  There are   48 functions in the AO basis.

  There are 4 irreducible representations.

       Irrep        # of functions
         1                 15
         2                  9
         3                 15
         4                  9


  Parameters for SCF calculation: 
        SCF reference function:  RHF  
  Maximum number of iterations:  150
     Full symmetry point group: C2h 
     Computational point group: C2h 
        Initial density matrix: MOREAD                 
     SCF convergence tolerance: 10**(- 7)
  DIIS convergence acceleration:  ON
          Latest start for DIIS:   8
                     DIIS order:   6

     Alpha population by irrep:   4    1    3    1
      Beta population by irrep:   4    1    3    1


  Memory information:     123590 words required.
  Fock matrices are constructed from AO integral file.
 @GETMEM-I,  Allocated       0 MB of main memory.
  Initialization and symmetry analysis required      0.001 seconds.

 total no. of electrons in initial guess :   0.0000000000000000     
  --------------------------------------------------------------------
  Iteration         Total Energy            Largest Density Difference
  --------------------------------------------------------------------
       0            41.471860963754700              0.0000000000D+00
   current occupation vector 
     4  1  3  1
     4  1  3  1
       1           -97.348751012363550              0.1450057878D+01
   current occupation vector 
     4  1  3  1
     4  1  3  1
       2          -100.240327947946383              0.3182365735D+01
   current occupation vector 
     4  1  3  1
     4  1  3  1
       3          -106.375914589813704              0.3156908025D+01
   current occupation vector 
     4  1  3  1
     4  1  3  1
       4          -106.678898088694496              0.2426192398D+01
   current occupation vector 
     4  1  3  1
     4  1  3  1
       5          -109.081237457893678              0.2407771635D+01
   current occupation vector 
     4  1  3  1
     4  1  3  1
       6          -110.346193259685521              0.5449952541D+00
   current occupation vector 
     4  1  3  1
     4  1  3  1
       7          -110.918709736364548              0.3665152056D+00
   current occupation vector 
     4  1  3  1
     4  1  3  1
       8          -111.102522331357051              0.1891625306D+00
   current occupation vector 
     4  1  3  1
     4  1  3  1
       9          -111.177103073492589              0.7262599268D-01
   current occupation vector 
     4  1  3  1
     4  1  3  1
      10          -111.177254185219908              0.4256295837D-02
   current occupation vector 
     4  1  3  1
     4  1  3  1
      11          -111.177265889527405              0.1682583025D-02
   current occupation vector 
     4  1  3  1
     4  1  3  1
      12          -111.177266909437378              0.6078502026D-03
   current occupation vector 
     4  1  3  1
     4  1  3  1
      13          -111.177266973326567              0.1682457473D-03
   current occupation vector 
     4  1  3  1
     4  1  3  1
      14          -111.177266974351909              0.1793353003D-04
   current occupation vector 
     4  1  3  1
     4  1  3  1
      15          -111.177266974370411              0.2086631508D-05
   current occupation vector 
     4  1  3  1
     4  1  3  1
      16          -111.177266974370781              0.4168999574D-06
   current occupation vector 
     4  1  3  1
     4  1  3  1

  SCF has converged.

 Density matrix saved to file den.dat
 total electron number:   17.999999999999982     
     E(SCF)=      -111.177266974371037              0.2412668415D-07

  Eigenvector printing suppressed.

 @PUTMOS-I, Writing converged MOs to NEWMOS. 
 @PUTMOS-I, Symmetry   1 Full Blocks  3 Partial Blocksize   3
 @PUTMOS-I, Symmetry   2 Full Blocks  2 Partial Blocksize   1
 @PUTMOS-I, Symmetry   3 Full Blocks  3 Partial Blocksize   3
 @PUTMOS-I, Symmetry   4 Full Blocks  2 Partial Blocksize   1
 @PUTFOCK-I, Writing converged Fock matrix to NEWFOCK. 
 @PUTFOCK-I, Symmetry   1 Full Blocks  3 Partial Blocksize   3
 @PUTFOCK-I, Symmetry   2 Full Blocks  2 Partial Blocksize   1
 @PUTFOCK-I, Symmetry   3 Full Blocks  3 Partial Blocksize   3
 @PUTFOCK-I, Symmetry   4 Full Blocks  2 Partial Blocksize   1



  ORBITAL EIGENVALUES (ALPHA)  (1H = 27.2113834 eV)

       MO #        E(hartree)               E(eV)           FULLSYM    COMPSYM
       ----   --------------------   --------------------   -------   ---------
    1     1         -15.5619888893        -423.4632461331      Ag        Ag (1)
    2    25         -15.5615249455        -423.4506215807      Bu        Bu (3)
    3     2          -1.2454484000         -33.8903739184      Ag        Ag (1)
    4    26          -0.9935929410         -27.0370384599      Bu        Bu (3)
    5    16          -0.6871228726         -18.6975639288      Au        Au (2)
    6     3          -0.6081895442         -16.5496788666      Ag        Ag (1)
    7    40          -0.5510703587         -14.9953868114      Bg        Bg (4)
    8    27          -0.5282860309         -14.3753937323      Bu        Bu (3)
    9     4          -0.3283595220          -8.9351168469      Ag        Ag (1)
  +++++++++++++++++++++++++++++++++++++++++++++++++++++++++++++++++++++++++++++
   10     5           0.1916824157           5.2159437037      Ag        Ag (1)
   11    28           0.2121225443           5.7721478804      Bu        Bu (3)
   12    17           0.2390006472           6.5035382444      Au        Au (2)
   13    41           0.2925268243           7.9600595710      Bg        Bg (4)
   14    29           0.4567256848          12.4281377180      Bu        Bu (3)
   15    18           0.6781349217          18.4529893510      Au        Au (2)
   16    30           0.8274201468          22.5152468484      Bu        Bu (3)
   17     6           0.8369578988          22.7747822730      Ag        Ag (1)
   18    42           0.8752157943          23.8158325372      Bg        Bg (4)
   19     7           0.9262050753          25.2033214097      Ag        Ag (1)
   20    31           0.9745411409          26.5186126229      Bu        Bu (3)
   21    43           1.0178323146          27.6966253487      Bg        Bg (4)
   22     8           1.0842880057          29.5049766392      Ag        Ag (1)
   23    19           1.0991820946          29.9102654018      Au        Au (2)
   24    32           1.1147787264          30.3346713305      Bu        Bu (3)
   25     9           1.3354792725          36.3402385071      Ag        Ag (1)
   26    33           1.3487507033          36.7013724995      Bu        Bu (3)
   27    20           1.4033080997          38.1859547299      Au        Au (2)
   28    34           1.5331339506          41.7186957330      Bu        Bu (3)
   29    44           1.5970782883          43.4587096214      Bg        Bg (4)
   30    10           1.8102261660          49.2587582445      Ag        Ag (1)
   31    45           1.9095506413          51.9615146230      Bg        Bg (4)
   32    21           1.9206728958          52.2641665528      Au        Au (2)
   33    11           1.9897074821          54.1426931493      Ag        Ag (1)
   34    35           2.1214005132          57.7262427106      Bu        Bu (3)
   35    22           2.1911673743          59.6246955151      Au        Au (2)
   36    36           2.2614998163          61.5385385614      Bu        Bu (3)
   37    46           2.2769232350          61.9582311207      Bg        Bg (4)
   38    12           2.3400165687          63.6750880145      Ag        Ag (1)
   39    23           2.4114720126          65.6194894929      Au        Au (2)
   40    13           2.5249754254          68.7080743763      Ag        Ag (1)
   41    37           2.7057151699          73.6262528599      Bu        Bu (3)
   42    47           2.8801862552          78.3738524547      Bg        Bg (4)
   43    14           2.8822624782          78.4303493551      Ag        Ag (1)
   44    38           2.9343865025          79.8487161622      Bu        Bu (3)
   45    15           3.1516251886          85.7600813390      Ag        Ag (1)
   46    39           3.2792282997          89.2323385193      Bu        Bu (3)
   47    48           3.3360518356          90.7785855408      Bg        Bg (4)
   48    24           3.4441547773          93.7202161351      Au        Au (2)


  VSCF finished.

 @CHECKOUT-I, Total execution time (CPU/WALL):        0.04/       0.02 seconds.
--executable xvscf finished with status     0 in        0.02 seconds (walltime).
  The final electronic energy is      -111.177266974371037 a.u. 
  This computation required                            0.23 seconds (walltime).
