Basis is STO-3G
Core-guess
 --invoking executable--
/home/thomas/Packages/cfour19/bin/xjoda


   *************************************************************************
         <<<     CCCCCC     CCCCCC   |||     CCCCCC     CCCCCC   >>>
       <<<      CCC        CCC       |||    CCC        CCC         >>>
      <<<      CCC        CCC        |||   CCC        CCC            >>>
    <<<        CCC        CCC        |||   CCC        CCC              >>>
      <<<      CCC        CCC        |||   CCC        CCC            >>>
       <<<      CCC        CCC       |||    CCC        CCC         >>>
         <<<     CCCCCC     CCCCCC   |||     CCCCCC     CCCCCC   >>>
   *************************************************************************

     ****************************************************************
     * CFOUR Coupled-Cluster techniques for Computational Chemistry *
     ****************************************************************


   Department of Chemistry                Institut fuer Physikalische Chemie
   University of Texas at Austin          Universitaet Mainz
   Austin, TX  78712, USA                 D-55099 Mainz, Germany

                       Version 1.2

                     laptop21                                          
                     Fri 07 Jan 2022 02:30:47 PM CST                   
                     integer*8 version is running

********************************************************************************
*                          Input from ZMAT file                                *
********************************************************************************
NH3                                                                             
N    0.00000000     0.12321896     0.00000000                                   
H    1.79828758    -0.57068247     0.00000000                                   
H   -0.89914379    -0.57068247     1.55736273                                   
H   -0.89914379    -0.57068247    -1.55736273                                   
                                                                                
*CFOUR(CALC=SCF                                                                 
COORDINATES=CARTESIAN,UNITS=BOHR                                                
BASIS=SPECIAL,SPHERICAL=ON                                                      
REFERENCE=RHF                                                                   
MEM_SIZE=2,MEM_UNIT=GB)                                                         
                                                                                
N:P4_STO-3G                                                                     
H:P4_STO-3G                                                                     
H:P4_STO-3G                                                                     
H:P4_STO-3G                                                                     
                                                                                
********************************************************************************
    -------------------------------------------------------------------
                    CFOUR Control Parameters 
    -------------------------------------------------------------------
        External           Internal           Value            Units
          Name               Name
    -------------------------------------------------------------------
       ABCDTYPE             IABCDT         STANDARD    [  0]    ***   
       ANHARMONIC           IANHAR         OFF         [  0]    ***   
       ANH_ALGORIT          IANALG         STANDARD    [  0]    ***   
       ANH_DERIVAT          IANDER         SECOND      [  1]    ***   
       ANH_MODE             ANHMOD         VIBRATION   [  0]    ***   
       ANH_POINTS           IANPOI              1               ***   
       ANH_STEPSIZ          ICUBST             50000          x 10-6  
       ANH_SYMMETR          IANHSM         ABELIAN     [  0]    ***   
       AO_LADDERS           IAOLAD         SINGLEPASS  [  1]    ***   
       AUXBASIS             IAUXBS         AUTO        [  0]    ***   
       AV_SCF               IAVSCF         OFF         [  0]    ***   
       BASIS                IBASIS         SPECIAL     [  0]    ***   
       BFIELD               IBFIEL         OFF         [  0]    a.u.  
       BOTHVECTORS          BOTHVC         OFF         [  0]    ***   
       BOX_POTENT           IPIAB          OFF         [  0]    ***   
       BREIT                IBREIT         OFF         [  0]    ***   
       BRUCK_CONV           IBRTOL          10D-  4             ***   
       BRUECKNER            IBRKNR         OFF         [  0]    ***   
       BUFFERSIZE           IBUFFS              4096            ***   
       CACHE_RECS           ICHREC             10               ***   
       CALCLEVEL            ICLLVL         SCF         [  0]    ***   
       CAS_GECCO            ICMRCC         OFF         [  0]    ***   
       CAS_GUESS            ICGUES         CANONICAL   [  0]    ***   
       CAS_INPUT            ICSINP         ORBITALS    [  0]    ***   
       CAS_ITMAX            ICITMX          10D- 50           cycles  
       CAS_JACDAV           ICJDAV         OFF         [  0]    ***   
       CAS_MICMAX           ICMIMN          10D- 10             ***   
       CAS_MICMIN           ICMIMX          10D-  2             ***   
       CAS_MICRO            ICSALG         ILU/JACOBI  [  0]    ***   
       CAS_MITMAX           ICMIMX          10D-100           cycles  
       CAS_MMAX             ICMMAX          10D- 50             ***   
       CAS_PRINT            ICPRT           10D-  0             ***   
       CCORBOPT             ICCORB         OFF         [  0]  x 0.01  
       CC_CONV              ICCCNV          10D-  7             ***   
       CC_EXPORDER          ICCEOR              5               ***   
       CC_EXTRAPOL          ICCEXT         DIIS        [  1]    ***   
       CC_GUESS             ICCGES         MP2         [  0]    ***   
       CC_MAXCYC            ICCCYC            100              cycles 
       CC_PROGRAM           ICCPRO         VCC         [  0]    ***   
       CHARGE               ICHRGE              0               ***   
       CHOLESKY             ICHOLE         OFF         [  0]    ***   
       CIS_CONV             ICISTL              5               ***   
       COMM_SIZE            IPSIZE            ***               ***   
       CONSTANT             ICONST         OLD         [  1]    ***   
       CONTINUUM            ICONTU         NONE        [  0]    ***   
       CONTRACTION          ICNTYP         GENERAL     [  1]    ***   
       COORDINATES          ICOORD         CARTESIAN   [  1]    ***   
       CPHF_CONVER          ICPHFT          10D- 16             ***   
       CPHF_MAXCYC          ICPHFC             64              cycles 
       CUBIC                ICUBIC         OFF         [  0]    ***   
       CURVILINEAR          ICURVY         OFF         [  0]    ***   
       CV_ELEMENT           ICVELM              0               ***   
       CV_ORBITALS          ICVORB      NONE         
       CV_SEPARATE          ICVSEP         OFF         [  0]    ***   
       DBOC                 IDBOC          OFF         [  0]    ***   
       DCT                  IDCT           OFF         [  0]    ***   
       DERIV_LEV            IDRLVL         ZERO        [  0]    ***   
       DEVMEM_SIZE          IDVMEM         *********           MByte  
       DF                   IDF            OFF         [  0]    ***   
       DIAG_MRCC            IEOMST          10D-  0             ***   
       DIFF_TYPE            IDIFTY         RELAXED     [  0]    ***   
       DIRECT               IDIRCT         OFF         [  0]    ***   
       DROPMO               IDRPMO      NONE         
       ECP                  IECP           OFF         [  0]    ***   
       EIGENVECTOR          IVEC                1               ***   
       EL_ANHARM            IELANH         OFF         [  0]    ***   
       EOMFOLLOW            IEOMSR         ENERGY      [  0]    ***   
       EOMIP                IEOMIP         OFF         [  0]    ***   
       EOMLEVEL             HBARFM         SAME        [  0]    ***   
       EOM_MRCC             IMRCCE         NEW         [  1]    ***   
       EOM_NONIT            EOMNON         OFF         [  0]    ***   
       EOM_NSING            IEOMSI          10D-  0             ***   
       EOM_NSTATES          IMRCCD         DAVIDSON    [  0]    ***   
       EOM_NTRIP            IEOMTR          10D-  0             ***   
       EOM_ORDER            IEXORD         ENERGY      [  0]    ***   
       EOM_PROPSTA          IEOMST              0               ***   
       ESTATE_CONV          IEXTOL          10D-  5             ***   
       ESTATE_DERI          IESTDR            999               ***   
       ESTATE_DIAG          IEXDIG         ITERATIVE   [  0]    ***   
       ESTATE_LOCK          IESLOC         ON          [  1]    ***   
       ESTATE_MAXC          IEXMXC             40               ***   
       ESTATE_PROP          IEXPRP         OFF         [  0]    ***   
       EVAL_HESS            IRECAL              0            # of cyc.
       EXCITATION           IEXCIT              0               ***   
       EXCITE               IEXCIT         NONE        [  0]    ***   
       EXTERN_POT           IEXPOT         OFF         [  0]    ***   
       FCGRADNEW            IFCGNW         OFF         [  0]    ***   
       FC_FIELD             IFINFC              0             x 10-6  
       FD_CALTYPE           IFDCAL         GRADONLY    [  0]    ***   
       FD_PROJECT           IFDPRJ         OFF         [  1]    ***   
       FD_STEPSIZE          IDISFD              0            10-4 bohr
       FD_USEGROUP          IFDGRP         FULL        [  0]    ***   
       FILE_RECSIZ          IFLREC              4096           words  
       FINITE_PERT          IFIPER              0             x 10-6  
       FIXGEOM              IFIXGM         OFF         [  0]    ***   
       FOCK                 IFOCK          AO          [  1]    ***   
       FREQ_ALGORI          IVIALG         STANDARD    [  0]    ***   
       FROZEN_CORE          IFROCO         OFF         [  0]    ***   
       FROZEN_VIRT          IFROVI         OFF         [  0]    ***   
       GAMMA_ABCD           IGABCD         STORE       [  0]    ***   
       GAMMA_ABCI           IGABCI         STORE       [  0]    ***   
       GENBAS_1             IGNBS1              0               ***   
       GENBAS_2             IGNBS2              0               ***   
       GENBAS_3             IGNBS3              0               ***   
       GENBAS_4             IGNBS4              0               ***   
       GEO_CONV             ICONTL              5              H/bohr 
       GEO_MAXCYC           IOPTCY             50               ***   
       GEO_MAXSTEP          IMXSTP            300            millibohr
       GEO_METHOD           INR            SINGLE_POINT[  5]    ***   
       GIAO                 IGIAO          OFF         [  1]    ***   
       GIMIC                IGIMIC         OFF         [  0]    ***   
       GRID                 IGRID          OFF         [  0]    ***   
       GRID_ALGO            IGALGO         SERIAL      [  0]    ***   
       GUESS                IGUESS         MOREAD      [  0]    ***   
       HBAR                 IHBAR          OFF         [  0]    ***   
       HESS_TYPE            IHESTP         SCF         [  0]    ***   
       HF2_FILE             IHF2Fl         USE         [  1]    ***   
       HFSTABILITY          ISTABL         OFF         [  0]    ***   
       INCORE               INCORE         OFF         [  0]    ***   
       INPUT_MRCC           IMRCC          ON          [  1]    ***   
       INTEGRALS            INTTYP         VMOL        [  1]    ***   
       IRPSING              IRPSNG              0               ***   
       JODA_PRINT           IJPRNT              0               ***   
       KEYWORD_OUT          IDMPKW         NO          [  0]    ***   
       LINDEP_TOL           ILINDP              8               ***   
       LINEQ_CONV           IZTACN          10D-  7           cycles  
       LINEQ_EXPOR          ILMAXD              5               ***   
       LINEQ_MAXCY          ILMAXC            100               ***   
       LINEQ_TYPE           ILTYPE         DIIS        [  1]    ***   
       LMP2_TYP             ILMP2T         VERSION1    [  0]    ***   
       LOCK_ORBOCC          ILOCOC         OFF         [  0]    ***   
       LOC_CONV             ILOCTY          10D-  7             ***   
       LOC_TYP              ILOCPR         PIPEK-MEZEY [  0]    ***   
       MEMORY_SIZE          IMEMSZ         250000000           words  
       MEM_UNIT             IMEMU          GB          [  3]    ***   
       MRCC                 IMRCCC         OFF         [  0]    ***   
       MULTIPLICTY          IMULTP              1               ***   
       NACOUPLING           IVCOUP         OFF         [  0]    ***   
       NCONTINUUM           INCONT                     [  0]    ***   
       NEGEVAL              IDIE           ABORT       [  0]    ***   
       NEWNORM              INEWNO         OFF         [  0]    ***   
       NON-HF               INONHF         OFF         [  0]    ***   
       NTOP_TAMP            ITOPT2             15               ***   
       NUC_MODEL            INUCMO         POINT       [  0]    ***   
       OCCUPATION           IOCCU   ESTIMATED BY SCF 
       OPEN-SHELL           IOPEN          SPIN-ORBITAL[  0]    ***   
       OPTVIB               IOPTVB         OFF         [  0]    ***   
       ORBITALS             IORBTP         STANDARD    [  0]    ***   
       PARALLEL             IPARAL         ON          [  1]    ***   
       PARA_INT             IPINTS         ON          [  1]    ***   
       PARA_PRINT           IPPRIN              0               ***   
       PERT_ORB             IPTORB         STANDARD    [  0]    ***   
       PNO_THR              IPNOTH          10D-  6             ***   
       PNO_USE              IPNOUS         OFF         [  0]    ***   
       POINTS               IGRDFD              0               ***   
       PRINT                IPRNT               0               ***   
       PROPS                IPROPS         OFF         [  0]    ***   
       PROP_INTEGR          IINTYP         INTERNAL    [  0]    ***   
       PSI                  IPSI           OFF         [  0]    ***   
       QC_ALG               IQCALG         FLM         [  0]    ***   
       QC_LINALG            IQCLIN         TRIDIAG     [  2]    ***   
       QC_MAXCYC            IQCMAX            100             cycles  
       QC_RTRUST            IQCRTR          10D-  0           x 10-3  
       QC_SKIPSCF           IQCSKI         OFF         [  0]    ***   
       QC_START             IQCSTA          10D-  3             ***   
       QRHFGUESS            IQGUES         OFF         [  0]    ***   
       QUARTIC              IQUART         OFF         [  0]    ***   
       Q_MAXSCFCY           IQCMSC             20             cycles  
       RAMAN_INT            IRAMIN         OFF         [  0]    ***   
       RAMAN_ORB            IRAMRE         UNRELAXED   [  0]    ***   
       RDO                  IRDOFM         OFF         [  0]    ***   
       REDUCE_REPR          REDREP         IR          [  0]    ***   
       REFERENCE            IREFNC         RHF         [  0]    ***   
       RELATIVIST           IRELAT         OFF         [  0]    ***   
       RELAX_DENS           IRDENS         OFF         [  0]    ***   
       RESET_FLAGS          IRESET         OFF         [  0]    ***   
       RESTART_CC           ICCRES         OFF         [  0]    ***   
       ROT_EVEC             ROTVEC              0               ***   
       SACC_ANSATZ          ISAANS         COS-CC      [  0]    ***   
       SACC_CALC            ISACLC         DENSITY     [  0]    ***   
       SACC_ORBS            ISAORB         STANDARD    [  0]    ***   
       SACC_PROP            ISAPRP         RELAXED     [  0]    ***   
       SAVE_INTS            ISVINT         OFF         [  0]    ***   
       SCALE_ON             ISTCRT              0               ***   
       SCF_CONV             ISCFCV          10D-  7             ***   
       SCF_DAMPING          IDAMP               0             x 10-3  
       SCF_EXPORDE          IRPPOR             10               ***   
       SCF_EXPSTAR          IRPPLS              2               ***   
       SCF_EXTRAPO          IRPP           ON          [  1]    ***   
       SCF_MAXCYC           ISCFCY            150              cycles 
       SCF_NOSTOP           ISCFST         OFF         [  0]    ***   
       SCF_ORBITAL          ISCFOR         REAL        [  0]    ***   
       SCF_PRINT            ISCFPR              0               ***   
       SCF_PROG             ISCFPR         SCF         [  0]    ***   
       SD_FIELD             IFINSD              0             x 10-6  
       SOPERT               IPERSO         OFF         [  0]    ***   
       SPHERICAL            IDFGHI         ON          [  1]    ***   
       SPINORBIT            ISOCAL         OFF         [  0]    ***   
       SPINROTATIO          ISRCON         OFF         [  0]    ***   
       SPIN_FLIP            ISPFLP         OFF         [  0]    ***   
       SPIN_ORBIT           ISPORB         OFF         [  0]    ***   
       SPIN_SCAL            ISCSMP         OFF         [  0]    ***   
       STAB_FOLLOW          ISFOLL         PLUS        [  0]    ***   
       STEEPSCALE           ISTPSC              1000          x 10-3  
       STEOM_ACT            STMACT         CANONICAL   [  0]    ***   
       STEOM_OCUT           STOCUT            200               ***   
       STEOM_VCUT           STVCUT            100               ***   
       SUBGROUP             ISUBGP         DEFAULT     [  0]    ***   
       SUBGRPAXIS           ISBXYZ         X           [  0]    ***   
       SYMMETRY             ISYM           ON          [  0]    ***   
       SYM_CHECK            ISYMCK         OVERRIDE    [  1]    ***   
       T3_EXTRAPOL          IT3EXT         OFF         [  0]    ***   
       T4_EXTRAPOL          IT4EXP         OFF         [  0]    ***   
       TAMP_SUM             IEVERY              5               ***   
       TESTSUITE            ITESTS         OFF         [  0]    ***   
       THC                  ITHC           OFF         [  0]    ***   
       THERMOCH             ITHERM         OFF         [  0]    ***   
       TOL_CHOLESK          ITOLCH          10D-  4             ***   
       TRANGRAD             IRESRM         OFF         [  0]    ***   
       TRANS_INV            ITRAIN         USE         [  0]    ***   
       TREAT_PERT           ITREAT         SIMULTANEOUS[  0]    ***   
       TRIP_ALGORI          ITRALG         NORMAL      [  0]    ***   
       TWOSTATE             ITWOST         OFF         [  0]    ***   
       UIJ_THRESHO          IUIJTH              1               ***   
       UNITS                IUNITS         BOHR        [  1]    ***   
       UNOS                 IUNOS          OFF         [  0]    ***   
       UPDATE_HESS          IHUPDT         ON          [  1]    ***   
       VIBPHASE             ISETPH         STANDARD    [  0]    ***   
       VIBRATION            IVIB           NO          [  0]    ***   
       VIB_ALGORIT          IGEALG         STANDARD    [  0]    ***   
       VNATORB              IVNORB         OFF         [  0]    ***   
       VTRAN                IVTRAN         FULL/PARTIAL[  0]    ***   
       X2CKEY               IX2CKE         MOLVDINT    [  0]    ***   
       XFIELD               IXEFLD              0             x 10-6  
       XFORM_TOL            IXFTOL          10D- 11             ***   
       YFIELD               IYEFLD              0             x 10-6  
       ZFIELD               IZEFLD              0             x 10-6  
       ZSCALE_EXP           IZEXPS         OFF         [  0]    ***   
    -------------------------------------------------------------------
 cholesky/tol? F   1.0000000000000005E-004
  @GETXYZ-I,     4 atoms read from ZMAT.
Line Symbol    AtNr   At. Mass
  1  N          7    14.00307
  2  H          1     1.00783
  3  H          1     1.00783
  4  H          1     1.00783
Line Symbol    AtNr   At. Mass
  1  N          7    14.00307
  2  H          1     1.00783
  3  H          1     1.00783
  4  H          1     1.00783
                    1                    4                    0
   Rotational constants (in cm-1): 
          6.1570089370             9.8915036428             9.8915036674
   Rotational constants (in MHz): 
     184582.5101745838        296539.8605846203        296539.8613218375
********************************************************************************
   The full molecular point group is Cs  .
   The largest Abelian subgroup of the full molecular point group is Cs  .
   The computational point group is Cs  .
********************************************************************************


 ----------------------------------------------------------------
         Coordinates used in calculation (QCOMP) 
 ----------------------------------------------------------------
 Z-matrix   Atomic            Coordinates (in bohr)
  Symbol    Number           X              Y              Z
 ----------------------------------------------------------------
     N         7         0.00000000     0.12321896     0.00000000
     H         1         1.79828758    -0.57068247     0.00000000
     H         1        -0.89914379    -0.57068247     1.55736273
     H         1        -0.89914379    -0.57068247    -1.55736273
 ----------------------------------------------------------------

   Interatomic distance matrix (Angstroms) 

                 N             H             H             H    
                [ 1]        [ 2]        [ 3]        [ 4]
  N    [ 1]     0.00000
  H    [ 2]     1.02000     0.00000
  H    [ 3]     1.02000     1.64824     0.00000
  H    [ 4]     1.02000     1.64824     1.64824     0.00000
   Rotational constants (order x, y, z, in cm-1): 
          9.8915036428             6.1570089370             9.8915036674
   Rotational constants (order x, y, z, in MHz): 
     296539.8605846203        184582.5101745838        296539.8613218375
  ECPDATA file not present.   Using default ECPDATA. 
 cholesky/tol? F   1.0000000000000005E-004
  calling rdbas                     1
  in rdbas
  in rdbas
  calling rdbas                     2
  in rdbas
  in rdbas
  calling rdbas                     3
  in rdbas
  in rdbas
  There are    8 basis functions.
 @GEOPT-W, Archive file not created for single-point calculation.
 @CHECKOUT-I, Total execution time (CPU/WALL):         0.14/       0.08 seconds.
--executable xjoda finished with status     0 in        0.14 seconds (walltime).
  TWOST is  F                    5
    0    0    0    7    7   11  100    8    0    1
    0    5    5   15    0  150  999    0    0   10
    1    0    0    0    0    0  999    0    1   16
   64    0    0    1    0***** 4096    0    0    2
    0    0    0   10    0    0    5    5    1    0
    0    0  300    0    0    1    0    0    1    0
    0    1    0    0    0    0    0    1    1    0
    0    0    0    0    0    4    0    1    0    1
    0    0    0    1    0    0    0    7    0    0
    0   50    0    0    1    1   40    5    0    0
 --invoking executable--
/home/thomas/Packages/cfour19/bin/xvmol

Running with 2 threads/proc

 SERIAL VERSION OF MOLECULE STARTED
********************************************************************************
                    INPUT FROM MOL FILE
********************************************************************************
INTGRL        1    0    1    0    0    0    0    0    0                         
         *** CFOUR Program System (Release V0.1) ***                            
NH3                                                                             
    3    1 Z          0.10E-08              0    0                              
   9999.00      3.00                                                            
          7.00000000    1    2    1    1                                        
N #1   0.000000000000000   0.123218961502091   0.000000000000000                
    6    2                                                                      
   99.106168999999994       0.15432899999999999        0.0000000000000000       
   18.052312000000001       0.53532809999999997        0.0000000000000000       
   4.8856602000000002       0.44463449999999999        0.0000000000000000       
   3.7804559000000002        0.0000000000000000       -9.9967200000000006E-002  
  0.87849659999999996        0.0000000000000000       0.39951280000000000       
  0.28571439999999998        0.0000000000000000       0.70011550000000000       
    3    1                                                                      
   3.7804559000000002       0.15591630000000001                                 
  0.87849659999999996       0.60768370000000005                                 
  0.28571439999999998       0.39195740000000001                                 
          1.00000000    1    1    1                                             
H #2   1.798287580000000  -0.570682468497909   0.000000000000000                
    3    1                                                                      
   3.4252509000000000       0.15432899999999999                                 
  0.62391370000000002       0.53532809999999997                                 
  0.16885539999999999       0.44463449999999999                                 
          1.00000000    1    1    1                                             
H #3  -0.899143790000000  -0.570682468497909   1.557362730000000                
    3    1                                                                      
   3.4252509000000000       0.15432899999999999                                 
  0.62391370000000002       0.53532809999999997                                 
  0.16885539999999999       0.44463449999999999                                 
FINISH                                                                          

********************************************************************************
 ONE- AND TWO-ELECTRON INTEGRALS OVER SYMMETRY-ADAPTED AOS ARE CALCULATED.

  SPHERICAL HARMONICS ARE USED.
  
  INTEGRALS LESS THAN  0.10E-13 ARE NEGLECTED.

  NUCLEAR REPULSION ENERGY :   11.8579893725 A.U.
  @MOLECU-I, ONE ELECTRON INTEGRALS (CPU/WALL):        0.00/       0.00 SECONDS.
  @TWOEL-I,        204 INTEGRALS OF SYMMETRY TYPE  I I I I
  @TWOEL-I,         73 INTEGRALS OF SYMMETRY TYPE  I J I J
  @TWOEL-I,         58 INTEGRALS OF SYMMETRY TYPE  I I J J
  @TWOEL-I, TOTAL NUMBER OF 2-E INTEGRALS        335.
  @MOLECU-I, TWO ELECTRON INTEGRALS (CPU/WALL):        0.00/       0.00 SECONDS.
 @CHECKOUT-I, Total execution time (CPU/WALL):         0.01/       0.00 seconds.
--executable xvmol finished with status     0 in        0.01 seconds (walltime).
 --invoking executable--
/home/thomas/Packages/cfour19/bin/xvmol2ja
 @GETMEM-I,  Allocated    1907 MB of main memory.
 @CHECKOUT-I, Total execution time (CPU/WALL):         0.00/       0.00 seconds.
--executable xvmol2ja finished with status     0 in        0.00 seconds (walltime).
 --invoking executable--
/home/thomas/Packages/cfour19/bin/xvscf
  -------------------------------------------------
  Self-Consistent-Field Program for HF calculations
  -------------------------------------------------
    Integrals from VMOL are used
  There are    8 functions in the AO basis.

  There are 2 irreducible representations.

       Irrep        # of functions
         1                  6
         2                  2


  occupations read                     0                    0                    0                    0                    0                    0                    0                    0                    0                    0                    0                    0                    0                    0                    0                    0
  fetching occupation vector 
  Parameters for SCF calculation: 
        SCF reference function:   HF  
  Maximum number of iterations:  150
     Full symmetry point group: Cs  
     Computational point group: Cs  
        Initial density matrix: MOREAD                 
     SCF convergence tolerance: 10**(- 7)
  DIIS convergence acceleration:  ON
          Latest start for DIIS:   2
                     DIIS order:  10

 @GETMEM-I,  Allocated       0 MB of main memory.
   Smallest overlap matrix eigenvalues 
     Symmetry    Eigenvalue    
         1      .2988556806D+00              
         2      .5286985093D+00              
  gssopt is  F
  going down and gssopt F
  isther here  F
  @INITGES-I, Occupancies from core Hamiltonian:

          Alpha population by irrep:   4    1
           Beta population by irrep:   4    1


  isther is  F                    0                    0                    0
   0.0000000000000000      ztest
  --------------------------------------------------------------------
  Iteration         Total Energy            Largest Density Difference
  --------------------------------------------------------------------
       0            11.857989372522740              0.0000000000D+00
       1           -52.792761010554955              0.3167361785D+01
       2           -55.377769543966920              0.2020851547D+01
       3           -55.453174849770903              0.2458914522D+00
       4           -55.454153595496379              0.6942184253D-01
       5           -55.454201183546772              0.1439927979D-01
       6           -55.454203947035055              0.3268639739D-02
       7           -55.454204009796157              0.3932327694D-03
       8           -55.454204009800478              0.1955181841D-05
   final occupation vector 
     4  1
     4  1

  SCF has converged.

 Density matrix saved to file den.dat
 total electron number:   10.000000000000000     
     E(SCF)=       -55.454204009800520              0.2557279533D-07

  Eigenvector printing suppressed.




  ORBITAL EIGENVALUES (ALPHA)  (1H = 27.2113819 eV)

       MO #        E(hartree)               E(eV)           FULLSYM    COMPSYM
       ----   --------------------   --------------------   -------   ---------
    1     1         -15.3020005434        -416.3885809214     A'        A'  (1)
    2     2          -1.0823166057         -29.4513305167     A'        A'  (1)
    3     7          -0.5696578082         -15.5011761835    E          A'' (2)
    4     3          -0.5696578082         -15.5011761833    E          A'  (1)
    5     4          -0.3478949188          -9.4667015033     A'        A'  (1)
  +++++++++++++++++++++++++++++++++++++++++++++++++++++++++++++++++++++++++++++
    6     5           0.6271483744          17.0655739360     A'        A'  (1)
    7     8           0.7275741213          19.7982972890    E          A'' (2)
    8     6           0.7275741216          19.7982972989    E          A'  (1)


  iflags(77) is                     0
  iflags(38) is                     0
  VSCF finished.

 @CHECKOUT-I, Total execution time (CPU/WALL):         0.01/       0.00 seconds.
--executable xvscf finished with status     0 in        0.01 seconds (walltime).
  The final electronic energy is       -55.454204009800520 a.u. 
  This computation required                            0.16 seconds (walltime).
