
Host: laptop21

Timers On : Thu Jan 13 08:12:39 2022
Timers Off: Thu Jan 13 08:36:44 2022

Wall Time:     1445.30 seconds

                                                       Time (seconds)
Module                                       User      System        Wall        Calls
Total PK formation time             :      0.017u      0.000s      0.016w      1 calls
HF: Form core H                     :      0.000u      0.000s      0.000w      1 calls
HF: Form S/X                        :      0.000u      0.000s      0.000w      1 calls
HF: Guess                           :      0.100u      0.000s      0.067w      1 calls
SAD Guess                           :      0.100u      0.000s      0.063w      1 calls
HF: Form G                          :      0.000u      0.000s      0.000w      6 calls
JK: D                               :      0.000u      0.000s      0.000w      6 calls
JK: USO2AO                          :      0.000u      0.000s      0.000w      6 calls
JK: JK                              :      0.000u      0.000s      0.000w      6 calls
PK computes JK                      :      0.000u      0.000s      0.000w      6 calls
JK: AO2USO                          :      0.000u      0.000s      0.000w      6 calls
HF: Form F                          :      0.000u      0.000s      0.000w      6 calls
HF: Form D                          :      0.000u      0.000s      0.000w      6 calls
HF: DIIS                            :      0.017u      0.000s      0.001w      5 calls
DIISManager::add_entry              :      0.000u      0.000s      0.000w      5 calls
DIISManager::extrapolate            :      0.000u      0.000s      0.000w      5 calls
bMatrix setup                       :      0.000u      0.000s      0.000w      5 calls
bMatrix pseudoinverse               :      0.000u      0.000s      0.000w      5 calls
New vector                          :      0.000u      0.000s      0.000w      5 calls
HF: Form C                          :      0.000u      0.000s      0.000w      5 calls

--------------------------------------------------------------------------------------
Total PK formation time             :      0.017u      0.000s      0.016w      1 calls
HF: Form core H                     :      0.000u      0.000s      0.000w      1 calls
HF: Form S/X                        :      0.000u      0.000s      0.000w      1 calls
HF: Guess                           :      0.100u      0.000s      0.067w      1 calls
| SAD Guess                         :      0.100u      0.000s      0.063w      1 calls
HF: Form G                          :      0.000u      0.000s      0.000w      6 calls
| JK: D                             :      0.000u      0.000s      0.000w      6 calls
| JK: USO2AO                        :      0.000u      0.000s      0.000w      6 calls
| JK: JK                            :      0.000u      0.000s      0.000w      6 calls
| | PK computes JK                  :      0.000u      0.000s      0.000w      6 calls
| JK: AO2USO                        :      0.000u      0.000s      0.000w      6 calls
HF: Form F                          :      0.000u      0.000s      0.000w      6 calls
HF: Form D                          :      0.000u      0.000s      0.000w      6 calls
HF: DIIS                            :      0.017u      0.000s      0.001w      5 calls
| DIISManager::add_entry            :      0.000u      0.000s      0.000w      5 calls
| DIISManager::extrapolate          :      0.000u      0.000s      0.000w      5 calls
| | bMatrix setup                   :      0.000u      0.000s      0.000w      5 calls
| | bMatrix pseudoinverse           :      0.000u      0.000s      0.000w      5 calls
| | New vector                      :      0.000u      0.000s      0.000w      5 calls
HF: Form C                          :      0.000u      0.000s      0.000w      5 calls

**************************************************************************************

Host: laptop21

Timers On : Thu Jan 13 08:36:47 2022
Timers Off: Thu Jan 13 08:37:12 2022

Wall Time:       25.02 seconds

                                                       Time (seconds)
Module                                       User      System        Wall        Calls

--------------------------------------------------------------------------------------

**************************************************************************************

Host: laptop21

Timers On : Thu Jan 13 08:37:14 2022
Timers Off: Thu Jan 13 08:37:23 2022

Wall Time:        8.88 seconds

                                                       Time (seconds)
Module                                       User      System        Wall        Calls

--------------------------------------------------------------------------------------

**************************************************************************************

Host: laptop21

Timers On : Thu Jan 13 08:37:25 2022
Timers Off: Thu Jan 13 08:37:41 2022

Wall Time:       15.13 seconds

                                                       Time (seconds)
Module                                       User      System        Wall        Calls

--------------------------------------------------------------------------------------

**************************************************************************************

Host: laptop21

Timers On : Thu Jan 13 08:37:59 2022
Timers Off: Thu Jan 13 08:38:36 2022

Wall Time:       36.92 seconds

                                                       Time (seconds)
Module                                       User      System        Wall        Calls

--------------------------------------------------------------------------------------

**************************************************************************************

Host: laptop21

Timers On : Thu Jan 13 08:38:49 2022
Timers Off: Thu Jan 13 08:41:52 2022

Wall Time:      183.09 seconds

                                                       Time (seconds)
Module                                       User      System        Wall        Calls
Total PK formation time             :      0.033u      0.000s      0.028w      2 calls
HF: Form core H                     :      0.000u      0.000s      0.001w      2 calls
HF: Form S/X                        :      0.000u      0.000s      0.000w      2 calls
HF: Guess                           :      0.200u      0.000s      0.126w      2 calls
SAD Guess                           :      0.200u      0.000s      0.119w      2 calls
HF: Form G                          :      0.000u      0.000s      0.000w     12 calls
JK: D                               :      0.000u      0.000s      0.000w     12 calls
JK: USO2AO                          :      0.000u      0.000s      0.000w     12 calls
JK: JK                              :      0.000u      0.000s      0.000w     12 calls
PK computes JK                      :      0.000u      0.000s      0.000w     12 calls
JK: AO2USO                          :      0.000u      0.000s      0.000w     12 calls
HF: Form F                          :      0.000u      0.000s      0.000w     12 calls
HF: Form D                          :      0.000u      0.000s      0.000w     12 calls
HF: DIIS                            :      0.017u      0.000s      0.002w     10 calls
DIISManager::add_entry              :      0.000u      0.000s      0.000w     10 calls
DIISManager::extrapolate            :      0.000u      0.000s      0.000w     10 calls
bMatrix setup                       :      0.000u      0.000s      0.000w     10 calls
bMatrix pseudoinverse               :      0.000u      0.000s      0.000w     10 calls
New vector                          :      0.000u      0.000s      0.000w     10 calls
HF: Form C                          :      0.000u      0.000s      0.000w     10 calls

--------------------------------------------------------------------------------------
Total PK formation time             :      0.033u      0.000s      0.028w      2 calls
HF: Form core H                     :      0.000u      0.000s      0.001w      2 calls
HF: Form S/X                        :      0.000u      0.000s      0.000w      2 calls
HF: Guess                           :      0.200u      0.000s      0.126w      2 calls
| SAD Guess                         :      0.200u      0.000s      0.119w      2 calls
HF: Form G                          :      0.000u      0.000s      0.000w     12 calls
| JK: D                             :      0.000u      0.000s      0.000w     12 calls
| JK: USO2AO                        :      0.000u      0.000s      0.000w     12 calls
| JK: JK                            :      0.000u      0.000s      0.000w     12 calls
| | PK computes JK                  :      0.000u      0.000s      0.000w     12 calls
| JK: AO2USO                        :      0.000u      0.000s      0.000w     12 calls
HF: Form F                          :      0.000u      0.000s      0.000w     12 calls
HF: Form D                          :      0.000u      0.000s      0.000w     12 calls
HF: DIIS                            :      0.017u      0.000s      0.002w     10 calls
| DIISManager::add_entry            :      0.000u      0.000s      0.000w     10 calls
| DIISManager::extrapolate          :      0.000u      0.000s      0.000w     10 calls
| | bMatrix setup                   :      0.000u      0.000s      0.000w     10 calls
| | bMatrix pseudoinverse           :      0.000u      0.000s      0.000w     10 calls
| | New vector                      :      0.000u      0.000s      0.000w     10 calls
HF: Form C                          :      0.000u      0.000s      0.000w     10 calls

**************************************************************************************

Host: laptop21

Timers On : Thu Jan 13 08:41:55 2022
Timers Off: Thu Jan 13 09:05:10 2022

Wall Time:     1395.06 seconds

                                                       Time (seconds)
Module                                       User      System        Wall        Calls
Total PK formation time             :      0.133u      0.000s      0.070w      5 calls
HF: Form core H                     :      0.000u      0.000s      0.002w      5 calls
HF: Form S/X                        :      0.000u      0.000s      0.001w      5 calls
HF: Guess                           :      0.517u      0.000s      0.322w      5 calls
SAD Guess                           :      0.500u      0.000s      0.301w      5 calls
HF: Form G                          :      0.000u      0.000s      0.001w     30 calls
JK: D                               :      0.000u      0.000s      0.000w     30 calls
JK: USO2AO                          :      0.000u      0.000s      0.000w     30 calls
JK: JK                              :      0.000u      0.000s      0.000w     30 calls
PK computes JK                      :      0.000u      0.000s      0.000w     30 calls
JK: AO2USO                          :      0.000u      0.000s      0.000w     30 calls
HF: Form F                          :      0.000u      0.000s      0.000w     30 calls
HF: Form D                          :      0.000u      0.000s      0.000w     30 calls
HF: DIIS                            :      0.017u      0.000s      0.006w     25 calls
DIISManager::add_entry              :      0.000u      0.000s      0.001w     25 calls
DIISManager::extrapolate            :      0.000u      0.000s      0.001w     25 calls
bMatrix setup                       :      0.000u      0.000s      0.000w     25 calls
bMatrix pseudoinverse               :      0.000u      0.000s      0.000w     25 calls
New vector                          :      0.000u      0.000s      0.000w     25 calls
HF: Form C                          :      0.000u      0.000s      0.000w     25 calls

--------------------------------------------------------------------------------------
Total PK formation time             :      0.133u      0.000s      0.070w      5 calls
HF: Form core H                     :      0.000u      0.000s      0.002w      5 calls
HF: Form S/X                        :      0.000u      0.000s      0.001w      5 calls
HF: Guess                           :      0.517u      0.000s      0.322w      5 calls
| SAD Guess                         :      0.500u      0.000s      0.301w      5 calls
HF: Form G                          :      0.000u      0.000s      0.001w     30 calls
| JK: D                             :      0.000u      0.000s      0.000w     30 calls
| JK: USO2AO                        :      0.000u      0.000s      0.000w     30 calls
| JK: JK                            :      0.000u      0.000s      0.000w     30 calls
| | PK computes JK                  :      0.000u      0.000s      0.000w     30 calls
| JK: AO2USO                        :      0.000u      0.000s      0.000w     30 calls
HF: Form F                          :      0.000u      0.000s      0.000w     30 calls
HF: Form D                          :      0.000u      0.000s      0.000w     30 calls
HF: DIIS                            :      0.017u      0.000s      0.006w     25 calls
| DIISManager::add_entry            :      0.000u      0.000s      0.001w     25 calls
| DIISManager::extrapolate          :      0.000u      0.000s      0.001w     25 calls
| | bMatrix setup                   :      0.000u      0.000s      0.000w     25 calls
| | bMatrix pseudoinverse           :      0.000u      0.000s      0.000w     25 calls
| | New vector                      :      0.000u      0.000s      0.000w     25 calls
HF: Form C                          :      0.000u      0.000s      0.000w     25 calls

**************************************************************************************

Host: laptop21

Timers On : Thu Jan 13 09:05:12 2022
Timers Off: Thu Jan 13 09:42:44 2022

Wall Time:     2251.89 seconds

                                                       Time (seconds)
Module                                       User      System        Wall        Calls
Total PK formation time             :      0.067u      0.000s      0.034w      1 calls
HF: Form core H                     :      0.000u      0.000s      0.000w      1 calls
HF: Form S/X                        :      0.000u      0.000s      0.000w      1 calls
HF: Guess                           :      0.100u      0.000s      0.062w      1 calls
SAD Guess                           :      0.100u      0.000s      0.058w      1 calls
HF: Form G                          :      0.000u      0.000s      0.001w     11 calls
JK: D                               :      0.000u      0.000s      0.000w     11 calls
JK: USO2AO                          :      0.000u      0.000s      0.000w     11 calls
JK: JK                              :      0.000u      0.000s      0.000w     11 calls
PK computes JK                      :      0.000u      0.000s      0.000w     11 calls
JK: AO2USO                          :      0.000u      0.000s      0.000w     11 calls
HF: Form F                          :      0.000u      0.000s      0.000w     11 calls
HF: Form D                          :      0.000u      0.000s      0.000w     11 calls
HF: DIIS                            :      0.000u      0.000s      0.003w     10 calls
DIISManager::add_entry              :      0.000u      0.000s      0.000w     10 calls
DIISManager::extrapolate            :      0.000u      0.000s      0.000w     10 calls
bMatrix setup                       :      0.000u      0.000s      0.000w     10 calls
bMatrix pseudoinverse               :      0.000u      0.000s      0.000w     10 calls
New vector                          :      0.000u      0.000s      0.000w     10 calls
HF: Form C                          :      0.000u      0.000s      0.000w     10 calls

--------------------------------------------------------------------------------------
Total PK formation time             :      0.067u      0.000s      0.034w      1 calls
HF: Form core H                     :      0.000u      0.000s      0.000w      1 calls
HF: Form S/X                        :      0.000u      0.000s      0.000w      1 calls
HF: Guess                           :      0.100u      0.000s      0.062w      1 calls
| SAD Guess                         :      0.100u      0.000s      0.058w      1 calls
HF: Form G                          :      0.000u      0.000s      0.001w     11 calls
| JK: D                             :      0.000u      0.000s      0.000w     11 calls
| JK: USO2AO                        :      0.000u      0.000s      0.000w     11 calls
| JK: JK                            :      0.000u      0.000s      0.000w     11 calls
| | PK computes JK                  :      0.000u      0.000s      0.000w     11 calls
| JK: AO2USO                        :      0.000u      0.000s      0.000w     11 calls
HF: Form F                          :      0.000u      0.000s      0.000w     11 calls
HF: Form D                          :      0.000u      0.000s      0.000w     11 calls
HF: DIIS                            :      0.000u      0.000s      0.003w     10 calls
| DIISManager::add_entry            :      0.000u      0.000s      0.000w     10 calls
| DIISManager::extrapolate          :      0.000u      0.000s      0.000w     10 calls
| | bMatrix setup                   :      0.000u      0.000s      0.000w     10 calls
| | bMatrix pseudoinverse           :      0.000u      0.000s      0.000w     10 calls
| | New vector                      :      0.000u      0.000s      0.000w     10 calls
HF: Form C                          :      0.000u      0.000s      0.000w     10 calls

**************************************************************************************
